 vasp.5.4.4.18Apr17-6-g9f103f2a35 (build Sep 05 2018 15:32:50) complex          
  
 executed on             LinuxIFC date 2022.02.14  09:37:05
 running on   16 total cores
 distrk:  each k-point on   16 cores,    1 groups
 distr:  one band on NCORES_PER_BAND=   4 cores,    4 groups


--------------------------------------------------------------------------------------------------------


 INCAR:
 POTCAR:    PAW_PBE Ge_d 03Jul2007                
 POTCAR:    PAW_PBE Ge_d 03Jul2007                
   VRHFIN =Ge: 3d4s4p                                                           
   LEXCH  = PE                                                                  
   EATOM  =  2596.2402 eV,  190.8183 Ry                                         
                                                                                
   TITEL  = PAW_PBE Ge_d 03Jul2007                                              
   LULTRA =        F    use ultrasoft PP ?                                      
   IUNSCR =        1    unscreen: 0-lin 1-nonlin 2-no                           
   RPACOR =    2.000    partial core radius                                     
   POMASS =   72.610; ZVAL   =   14.000    mass and valenz                      
   RCORE  =    2.300    outmost cutoff radius                                   
   RWIGS  =    2.300; RWIGS  =    1.217    wigner-seitz radius (au A)           
   ENMAX  =  310.294; ENMIN  =  232.720 eV                                      
   ICORE  =        3    local potential                                         
   LCOR   =        T    correct aug charges                                     
   LPAW   =        T    paw PP                                                  
   EAUG   =  531.356                                                            
   DEXC   =    0.000                                                            
   RMAX   =    2.342    core radius for proj-oper                               
   RAUG   =    1.300    factor for augmentation sphere                          
   RDEP   =    2.318    radius for radial grids                                 
   RDEPT  =    1.783    core radius for aug-charge                              
                                                                                
   Atomic configuration                                                         
    9 entries                                                                   
     n  l   j            E        occ.                                          
     1  0  0.50    -10959.8463   2.0000                                         
     2  0  0.50     -1371.6056   2.0000                                         
     2  1  1.50     -1198.4791   6.0000                                         
     3  0  0.50      -168.4733   2.0000                                         
     3  1  1.50      -115.6019   6.0000                                         
     3  2  2.50       -29.3106  10.0000                                         
     4  0  0.50       -11.7309   2.0000                                         
     4  1  0.50        -3.8952   2.0000                                         
     4  3  2.50        -4.0817   0.0000                                         
   Description                                                                  
     l       E           TYP  RCUT    TYP  RCUT                                 
     2    -29.3105938     23  2.200                                             
     2    -13.6058260     23  2.200                                             
     0    -11.7309493     23  2.300                                             
     0     -7.4578696     23  2.300                                             
     1     -3.8952261     23  2.300                                             
     1      6.1178114     23  2.300                                             
     3     -1.3605826     23  2.300                                             
  local pseudopotential read in
  partial core-charges read in
  partial kinetic energy density read in
  atomic valenz-charges read in
  non local Contribution for L=           2  read in
    real space projection operators read in
  non local Contribution for L=           2  read in
    real space projection operators read in
  non local Contribution for L=           0  read in
    real space projection operators read in
  non local Contribution for L=           0  read in
    real space projection operators read in
  non local Contribution for L=           1  read in
    real space projection operators read in
  non local Contribution for L=           1  read in
    real space projection operators read in
    PAW grid and wavefunctions read in
 
   number of l-projection  operators is LMAX  =           6
   number of lm-projection operators is LMMAX =          18
 

 ----------------------------------------------------------------------------- 
|                                                                             |
|  ADVICE TO THIS USER RUNNING 'VASP/VAMP'   (HEAR YOUR MASTER'S VOICE ...):  |
|                                                                             |
|      You have a (more or less) 'large supercell' and for larger cells       |
|      it might be more efficient to use real space projection opertators     |
|      So try LREAL= Auto  in the INCAR   file.                               |
|      Mind:          For very  accurate calculation you might also keep the  |
|      reciprocal projection scheme          (i.e. LREAL=.FALSE.)             |
|                                                                             |
 ----------------------------------------------------------------------------- 

  PAW_PBE Ge_d 03Jul2007                :
 energy of atom  1       EATOM=-2596.2402
 kinetic energy error for atom=    0.0033 (will be added to EATOM!!)
 
 
 POSCAR: generated by phonopy                    
  positions in direct lattice
  No initial velocities read in
 exchange correlation table for  LEXCH =        8
   RHO(1)=    0.500       N(1)  =     2000
   RHO(2)=  100.500       N(2)  =     4000
 


--------------------------------------------------------------------------------------------------------


 ion  position               nearest neighbor table
   1  0.252  0.999  0.252-  27 2.46  59 2.49  41 2.50   9 2.52
   2  0.752  0.001  0.252-  42 2.47  60 2.51  10 2.52  28 2.53
   3  0.250  0.501  0.252-  11 2.50  43 2.50  25 2.51  57 2.53
   4  0.752  0.499  0.249-  44 2.48  12 2.48  58 2.49  26 2.50
   5  0.252  0.999  0.749-  63 2.47  13 2.50  45 2.51  31 2.53
   6  0.748  0.998  0.750-  32 2.48  64 2.49  46 2.50  14 2.52
   7  0.249  0.499  0.752-  29 2.44  15 2.50  61 2.51  47 2.52
   8  0.750  0.500  0.747-  62 2.46  16 2.49  30 2.50  48 2.53
   9  0.127  0.125  0.124-  17 2.46  33 2.50  49 2.51   1 2.52
  10  0.626  0.127  0.124-  50 2.49  18 2.50   2 2.52  34 2.54
  11  0.123  0.623  0.125-  35 2.50   3 2.50  51 2.52  19 2.52
  12  0.626  0.625  0.128-   4 2.48  36 2.50  52 2.50  20 2.53
  13  0.124  0.125  0.627-  53 2.49  37 2.49   5 2.50  21 2.55
  14  0.623  0.125  0.623-  54 2.46  38 2.48  22 2.50   6 2.52
  15  0.124  0.624  0.627-  55 2.46  39 2.47   7 2.50  23 2.55
  16  0.623  0.626  0.626-   8 2.49  56 2.50  24 2.50  40 2.50
  17  0.251  0.248  0.999-   9 2.46  45 2.49  29 2.52  57 2.53
  18  0.751  0.252  0.999-  58 2.46  30 2.49  46 2.49  10 2.50
  19  0.249  0.752  0.002-  59 2.45  31 2.51  47 2.51  11 2.52
  20  0.751  0.750  0.998-  48 2.48  32 2.48  60 2.51  12 2.53
  21  0.251  0.250  0.498-  41 2.46  25 2.46  61 2.52  13 2.55
  22  0.752  0.249  0.500-  42 2.46  62 2.49  14 2.50  26 2.51
  23  0.252  0.751  0.499-  63 2.46  43 2.47  27 2.50  15 2.55
  24  0.750  0.747  0.500-  44 2.46  16 2.50  28 2.51  64 2.53
  25  0.125  0.372  0.375-  49 2.46  21 2.46   3 2.51  39 2.53
  26  0.627  0.376  0.376-  40 2.46   4 2.50  22 2.51  50 2.55
  27  0.126  0.877  0.374-   1 2.46  23 2.50  51 2.51  37 2.53
  28  0.623  0.873  0.375-  52 2.49  24 2.51  38 2.52   2 2.53
  29  0.126  0.375  0.873-   7 2.44  53 2.50  35 2.50  17 2.52
  30  0.626  0.377  0.876-  18 2.49  36 2.50   8 2.50  54 2.54
  31  0.122  0.875  0.875-  33 2.49  19 2.51  55 2.51   5 2.53
  32  0.625  0.876  0.877-  34 2.46  20 2.48   6 2.48  56 2.50
  33  0.999  0.002  1.000-  46 2.47  31 2.49   9 2.50  60 2.51
  34  0.499  0.998  0.999-  32 2.46  45 2.48  59 2.50  10 2.54
  35  0.999  0.497  1.000-  48 2.48  58 2.49  11 2.50  29 2.50
  36  0.501  0.503  1.000-  47 2.47  57 2.49  30 2.50  12 2.50
  37  0.998  0.002  0.501-  13 2.49  42 2.50  64 2.51  27 2.53
  38  0.498  0.001  0.500-  41 2.46  14 2.48  63 2.51  28 2.52
  39  0.000  0.501  0.502-  15 2.47  62 2.47  44 2.53  25 2.53
  40  0.501  0.498  0.499-  26 2.46  61 2.47  16 2.50  43 2.51
  41  0.376  0.126  0.377-  21 2.46  38 2.46  50 2.47   1 2.50
  42  0.874  0.127  0.374-  22 2.46   2 2.47  49 2.48  37 2.50
  43  0.376  0.627  0.376-  52 2.47  23 2.47   3 2.50  40 2.51
  44  0.872  0.625  0.374-  24 2.46   4 2.48  51 2.51  39 2.53
  45  0.378  0.125  0.875-  54 2.48  34 2.48  17 2.49   5 2.51
  46  0.873  0.123  0.875-  33 2.47  18 2.49  53 2.49   6 2.50
  47  0.376  0.626  0.877-  36 2.47  56 2.48  19 2.51   7 2.52
  48  0.876  0.624  0.877-  20 2.48  35 2.48  55 2.51   8 2.53
  49  0.002  0.250  0.252-  25 2.46  42 2.48   9 2.51  58 2.52
  50  0.499  0.248  0.250-  41 2.47  10 2.49  57 2.51  26 2.55
  51  0.998  0.752  0.250-  60 2.44  27 2.51  44 2.51  11 2.52
  52  0.497  0.750  0.250-  43 2.47  59 2.48  28 2.49  12 2.50
  53  0.998  0.249  0.751-  13 2.49  46 2.49  29 2.50  62 2.53
  54  0.500  0.248  0.749-  14 2.46  45 2.48  61 2.52  30 2.54
  55  0.000  0.748  0.748-  15 2.46  64 2.47  31 2.51  48 2.51
  56  0.499  0.751  0.752-  47 2.48  63 2.49  32 2.50  16 2.50
  57  0.377  0.377  0.124-  36 2.49  50 2.51   3 2.53  17 2.53
  58  0.875  0.373  0.124-  18 2.46  35 2.49   4 2.49  49 2.52
  59  0.373  0.873  0.124-  19 2.45  52 2.48   1 2.49  34 2.50
  60  0.877  0.874  0.126-  51 2.44   2 2.51  33 2.51  20 2.51
  61  0.376  0.377  0.624-  40 2.47   7 2.51  21 2.52  54 2.52
  62  0.874  0.377  0.624-   8 2.46  39 2.47  22 2.49  53 2.53
  63  0.374  0.873  0.626-  23 2.46   5 2.47  56 2.49  38 2.51
  64  0.876  0.875  0.627-  55 2.47   6 2.49  37 2.51  24 2.53
 
  LATTYP: Found a simple cubic cell.
 ALAT       =    11.5257240000
  
  Lattice vectors:
  
 A1 = (  11.5257240000,   0.0000000000,   0.0000000000)
 A2 = (   0.0000000000,  11.5257240000,   0.0000000000)
 A3 = (   0.0000000000,   0.0000000000,  11.5257240000)


Analysis of symmetry for initial positions (statically):
=====================================================================
 Subroutine PRICEL returns:
 Original cell was already a primitive cell.
 

 Routine SETGRP: Setting up the symmetry group for a 
 simple cubic supercell.


 Subroutine GETGRP returns: Found  1 space group operations
 (whereof  1 operations were pure point group operations)
 out of a pool of 48 trial point group operations.


The static configuration has the point symmetry C_1 .


Analysis of symmetry for dynamics (positions and initial velocities):
=====================================================================
 Subroutine PRICEL returns:
 Original cell was already a primitive cell.
 

 Routine SETGRP: Setting up the symmetry group for a 
 simple cubic supercell.


 Subroutine GETGRP returns: Found  1 space group operations
 (whereof  1 operations were pure point group operations)
 out of a pool of 48 trial point group operations.


The dynamic configuration has the point symmetry C_1 .


 Subroutine INISYM returns: Found  1 space group operations
 (whereof  1 operations are pure point group operations),
 and found     1 'primitive' translations

 
 
 KPOINTS: grid density                            

Automatic generation of k-mesh.
Space group operators:
 irot       det(A)        alpha          n_x          n_y          n_z        tau_x        tau_y        tau_z
    1     1.000000     0.000000     1.000000     0.000000     0.000000     0.000000     0.000000     0.000000
 
 Subroutine IBZKPT returns following result:
 ===========================================
 
 Found     32 irreducible k-points:
 
 Following reciprocal coordinates:
            Coordinates               Weight
  0.125000  0.125000  0.125000      2.000000
  0.375000  0.125000  0.125000      2.000000
 -0.375000  0.125000  0.125000      2.000000
 -0.125000  0.125000  0.125000      2.000000
  0.125000  0.375000  0.125000      2.000000
  0.375000  0.375000  0.125000      2.000000
 -0.375000  0.375000  0.125000      2.000000
 -0.125000  0.375000  0.125000      2.000000
  0.125000 -0.375000  0.125000      2.000000
  0.375000 -0.375000  0.125000      2.000000
 -0.375000 -0.375000  0.125000      2.000000
 -0.125000 -0.375000  0.125000      2.000000
  0.125000 -0.125000  0.125000      2.000000
  0.375000 -0.125000  0.125000      2.000000
 -0.375000 -0.125000  0.125000      2.000000
 -0.125000 -0.125000  0.125000      2.000000
  0.125000  0.125000  0.375000      2.000000
  0.375000  0.125000  0.375000      2.000000
 -0.375000  0.125000  0.375000      2.000000
 -0.125000  0.125000  0.375000      2.000000
  0.125000  0.375000  0.375000      2.000000
  0.375000  0.375000  0.375000      2.000000
 -0.375000  0.375000  0.375000      2.000000
 -0.125000  0.375000  0.375000      2.000000
  0.125000 -0.375000  0.375000      2.000000
  0.375000 -0.375000  0.375000      2.000000
 -0.375000 -0.375000  0.375000      2.000000
 -0.125000 -0.375000  0.375000      2.000000
  0.125000 -0.125000  0.375000      2.000000
  0.375000 -0.125000  0.375000      2.000000
 -0.375000 -0.125000  0.375000      2.000000
 -0.125000 -0.125000  0.375000      2.000000
 
 Following cartesian coordinates:
            Coordinates               Weight
  0.010845  0.010845  0.010845      2.000000
  0.032536  0.010845  0.010845      2.000000
 -0.032536  0.010845  0.010845      2.000000
 -0.010845  0.010845  0.010845      2.000000
  0.010845  0.032536  0.010845      2.000000
  0.032536  0.032536  0.010845      2.000000
 -0.032536  0.032536  0.010845      2.000000
 -0.010845  0.032536  0.010845      2.000000
  0.010845 -0.032536  0.010845      2.000000
  0.032536 -0.032536  0.010845      2.000000
 -0.032536 -0.032536  0.010845      2.000000
 -0.010845 -0.032536  0.010845      2.000000
  0.010845 -0.010845  0.010845      2.000000
  0.032536 -0.010845  0.010845      2.000000
 -0.032536 -0.010845  0.010845      2.000000
 -0.010845 -0.010845  0.010845      2.000000
  0.010845  0.010845  0.032536      2.000000
  0.032536  0.010845  0.032536      2.000000
 -0.032536  0.010845  0.032536      2.000000
 -0.010845  0.010845  0.032536      2.000000
  0.010845  0.032536  0.032536      2.000000
  0.032536  0.032536  0.032536      2.000000
 -0.032536  0.032536  0.032536      2.000000
 -0.010845  0.032536  0.032536      2.000000
  0.010845 -0.032536  0.032536      2.000000
  0.032536 -0.032536  0.032536      2.000000
 -0.032536 -0.032536  0.032536      2.000000
 -0.010845 -0.032536  0.032536      2.000000
  0.010845 -0.010845  0.032536      2.000000
  0.032536 -0.010845  0.032536      2.000000
 -0.032536 -0.010845  0.032536      2.000000
 -0.010845 -0.010845  0.032536      2.000000
 


--------------------------------------------------------------------------------------------------------




 Dimension of arrays:
   k-points           NKPTS =     32   k-points in BZ     NKDIM =     32   number of bands    NBANDS=    540
   number of dos      NEDOS =    301   number of ions     NIONS =     64
   non local maximal  LDIM  =      6   non local SUM 2l+1 LMDIM =     18
   total plane-waves  NPLWV = 592704
   max r-space proj   IRMAX =      1   max aug-charges    IRDMAX=  13217
   dimension x,y,z NGX =    84 NGY =   84 NGZ =   84
   dimension x,y,z NGXF=   168 NGYF=  168 NGZF=  168
   support grid    NGXF=   168 NGYF=  168 NGZF=  168
   ions per type =              64
   NGX,Y,Z   is equivalent  to a cutoff of  12.12, 12.12, 12.12 a.u.
   NGXF,Y,Z  is equivalent  to a cutoff of  24.23, 24.23, 24.23 a.u.

 SYSTEM =  unknown system                          
 POSCAR =  generated by phonopy                    

 Startparameter for this run:
   NWRITE =      2    write-flag & timer
   PREC   = accura    normal or accurate (medium, high low for compatibility)
   ISTART =      0    job   : 0-new  1-cont  2-samecut
   ICHARG =      2    charge: 1-file 2-atom 10-const
   ISPIN  =      1    spin polarized calculation?
   LNONCOLLINEAR =      F non collinear calculations
   LSORBIT =      F    spin-orbit coupling
   INIWAV =      1    electr: 0-lowe 1-rand  2-diag
   LASPH  =      F    aspherical Exc in radial PAW
   METAGGA=      F    non-selfconsistent MetaGGA calc.

 Electronic Relaxation 1
   ENCUT  =  500.0 eV  36.75 Ry    6.06 a.u.  21.01 21.01 21.01*2*pi/ulx,y,z
   ENINI  =  500.0     initial cutoff
   ENAUG  =  531.4 eV  augmentation charge cutoff
   NELM   =     60;   NELMIN=  2; NELMDL= -5     # of ELM steps 
   EDIFF  = 0.1E-07   stopping-criterion for ELM
   LREAL  =      F    real-space projection
   NLSPLINE    = F    spline interpolate recip. space projectors
   LCOMPAT=      F    compatible to vasp.4.4
   GGA_COMPAT  = T    GGA compatible to vasp.4.4-vasp.4.6
   LMAXPAW     = -100 max onsite density
   LMAXMIX     =    2 max onsite mixed and CHGCAR
   VOSKOWN=      0    Vosko Wilk Nusair interpolation
   ROPT   =    0.00000
 Ionic relaxation
   EDIFFG = 0.1E-06   stopping-criterion for IOM
   NSW    =      0    number of steps for IOM
   NBLOCK =      1;   KBLOCK =      1    inner block; outer block 
   IBRION =     -1    ionic relax: 0-MD 1-quasi-New 2-CG
   NFREE  =      0    steps in history (QN), initial steepest desc. (CG)
   ISIF   =      2    stress and relaxation
   IWAVPR =     10    prediction:  0-non 1-charg 2-wave 3-comb
   ISYM   =      2    0-nonsym 1-usesym 2-fastsym
   LCORR  =      T    Harris-Foulkes like correction to forces

   POTIM  = 0.5000    time-step for ionic-motion
   TEIN   =    0.0    initial temperature
   TEBEG  =    0.0;   TEEND  =   0.0 temperature during run
   SMASS  =  -3.00    Nose mass-parameter (am)
   estimated Nose-frequenzy (Omega)   =  0.10E-29 period in steps =****** mass=  -0.304E-26a.u.
   SCALEE = 1.0000    scale energy and forces
   NPACO  =    256;   APACO  = 16.0  distance and # of slots for P.C.
   PSTRESS=    0.0 pullay stress

  Mass of Ions in am
   POMASS =  72.61
  Ionic Valenz
   ZVAL   =  14.00
  Atomic Wigner-Seitz radii
   RWIGS  =  -1.00
  virtual crystal weights 
   VCA    =   1.00
   NELECT =     896.0000    total number of electrons
   NUPDOWN=      -1.0000    fix difference up-down

 DOS related values:
   EMIN   =  10.00;   EMAX   =-10.00  energy-range for DOS
   EFERMI =   0.00
   ISMEAR =     0;   SIGMA  =   0.03  broadening in eV -4-tet -1-fermi 0-gaus

 Electronic relaxation 2 (details)
   IALGO  =     38    algorithm
   LDIAG  =      T    sub-space diagonalisation (order eigenvalues)
   LSUBROT=      F    optimize rotation matrix (better conditioning)
   TURBO    =      0    0=normal 1=particle mesh
   IRESTART =      0    0=no restart 2=restart with 2 vectors
   NREBOOT  =      0    no. of reboots
   NMIN     =      0    reboot dimension
   EREF     =   0.00    reference energy to select bands
   IMIX   =      4    mixing-type and parameters
     AMIX     =   0.40;   BMIX     =  1.00
     AMIX_MAG =   1.60;   BMIX_MAG =  1.00
     AMIN     =   0.10
     WC   =   100.;   INIMIX=   1;  MIXPRE=   1;  MAXMIX= -45

 Intra band minimization:
   WEIMIN = 0.0000     energy-eigenvalue tresh-hold
   EBREAK =  0.46E-11  absolut break condition
   DEPER  =   0.30     relativ break condition  

   TIME   =   0.40     timestep for ELM

  volume/ion in A,a.u.               =      23.92       161.44
  Fermi-wavevector in a.u.,A,eV,Ry     =   1.369334  2.587665 25.511940  1.875075
  Thomas-Fermi vector in A             =   2.495218
 
 Write flags
   LWAVE        =      F    write WAVECAR
   LDOWNSAMPLE  =      F    k-point downsampling of WAVECAR
   LCHARG       =      F    write CHGCAR
   LVTOT        =      F    write LOCPOT, total local potential
   LVHAR        =      F    write LOCPOT, Hartree potential only
   LELF         =      F    write electronic localiz. function (ELF)
   LORBIT       =      0    0 simple, 1 ext, 2 COOP (PROOUT), +10 PAW based schemes


 Dipole corrections
   LMONO  =      F    monopole corrections only (constant potential shift)
   LDIPOL =      F    correct potential (dipole corrections)
   IDIPOL =      0    1-x, 2-y, 3-z, 4-all directions 
   EPSILON=  1.0000000 bulk dielectric constant

 Exchange correlation treatment:
   GGA     =    --    GGA type
   LEXCH   =     8    internal setting for exchange type
   VOSKOWN=      0    Vosko Wilk Nusair interpolation
   LHFCALC =     F    Hartree Fock is set to
   LHFONE  =     F    Hartree Fock one center treatment
   AEXX    =    0.0000 exact exchange contribution

 Linear response parameters
   LEPSILON=     F    determine dielectric tensor
   LRPA    =     F    only Hartree local field effects (RPA)
   LNABLA  =     F    use nabla operator in PAW spheres
   LVEL    =     F    velocity operator in full k-point grid
   LINTERFAST=   F  fast interpolation
   KINTER  =     0    interpolate to denser k-point grid
   CSHIFT  =0.1000    complex shift for real part using Kramers Kronig
   OMEGAMAX=  -1.0    maximum frequency
   DEG_THRESHOLD= 0.2000000E-02 threshold for treating states as degnerate
   RTIME   =   -0.100 relaxation time in fs
  (WPLASMAI=    0.000 imaginary part of plasma frequency in eV, 0.658/RTIME)
   DFIELD  = 0.0000000 0.0000000 0.0000000 field for delta impulse in time
 
 Orbital magnetization related:
   ORBITALMAG=     F  switch on orbital magnetization
   LCHIMAG   =     F  perturbation theory with respect to B field
   DQ        =  0.001000  dq finite difference perturbation B field
   LLRAUG    =     F  two centre corrections for induced B field



--------------------------------------------------------------------------------------------------------


 Static calculation
 charge density and potential will be updated during run
 non-spin polarized calculation
 Variant of blocked Davidson
 Davidson routine will perform the subspace rotation
 perform sub-space diagonalisation
    after iterative eigenvector-optimisation
 modified Broyden-mixing scheme, WC =      100.0
 initial mixing is a Kerker type mixing with AMIX =  0.4000 and BMIX =      1.0000
 Hartree-type preconditioning will be used
 using additional bands           92
 reciprocal scheme for non local part
 use partial core corrections
 calculate Harris-corrections to forces 
   (improved forces if not selfconsistent)
 use gradient corrections 
 use of overlap-Matrix (Vanderbilt PP)
 Gauss-broadening in eV      SIGMA  =   0.03


--------------------------------------------------------------------------------------------------------


  energy-cutoff  :      500.00
  volume of cell :     1531.10
      direct lattice vectors                 reciprocal lattice vectors
    11.525724000  0.000000000  0.000000000     0.086762445  0.000000000  0.000000000
     0.000000000 11.525724000  0.000000000     0.000000000  0.086762445  0.000000000
     0.000000000  0.000000000 11.525724000     0.000000000  0.000000000  0.086762445

  length of vectors
    11.525724000 11.525724000 11.525724000     0.086762445  0.086762445  0.086762445


 
 k-points in units of 2pi/SCALE and weight: grid density                            
   0.01084531  0.01084531  0.01084531       0.031
   0.03253592  0.01084531  0.01084531       0.031
  -0.03253592  0.01084531  0.01084531       0.031
  -0.01084531  0.01084531  0.01084531       0.031
   0.01084531  0.03253592  0.01084531       0.031
   0.03253592  0.03253592  0.01084531       0.031
  -0.03253592  0.03253592  0.01084531       0.031
  -0.01084531  0.03253592  0.01084531       0.031
   0.01084531 -0.03253592  0.01084531       0.031
   0.03253592 -0.03253592  0.01084531       0.031
  -0.03253592 -0.03253592  0.01084531       0.031
  -0.01084531 -0.03253592  0.01084531       0.031
   0.01084531 -0.01084531  0.01084531       0.031
   0.03253592 -0.01084531  0.01084531       0.031
  -0.03253592 -0.01084531  0.01084531       0.031
  -0.01084531 -0.01084531  0.01084531       0.031
   0.01084531  0.01084531  0.03253592       0.031
   0.03253592  0.01084531  0.03253592       0.031
  -0.03253592  0.01084531  0.03253592       0.031
  -0.01084531  0.01084531  0.03253592       0.031
   0.01084531  0.03253592  0.03253592       0.031
   0.03253592  0.03253592  0.03253592       0.031
  -0.03253592  0.03253592  0.03253592       0.031
  -0.01084531  0.03253592  0.03253592       0.031
   0.01084531 -0.03253592  0.03253592       0.031
   0.03253592 -0.03253592  0.03253592       0.031
  -0.03253592 -0.03253592  0.03253592       0.031
  -0.01084531 -0.03253592  0.03253592       0.031
   0.01084531 -0.01084531  0.03253592       0.031
   0.03253592 -0.01084531  0.03253592       0.031
  -0.03253592 -0.01084531  0.03253592       0.031
  -0.01084531 -0.01084531  0.03253592       0.031
 
 k-points in reciprocal lattice and weights: grid density                            
   0.12500000  0.12500000  0.12500000       0.031
   0.37500000  0.12500000  0.12500000       0.031
  -0.37500000  0.12500000  0.12500000       0.031
  -0.12500000  0.12500000  0.12500000       0.031
   0.12500000  0.37500000  0.12500000       0.031
   0.37500000  0.37500000  0.12500000       0.031
  -0.37500000  0.37500000  0.12500000       0.031
  -0.12500000  0.37500000  0.12500000       0.031
   0.12500000 -0.37500000  0.12500000       0.031
   0.37500000 -0.37500000  0.12500000       0.031
  -0.37500000 -0.37500000  0.12500000       0.031
  -0.12500000 -0.37500000  0.12500000       0.031
   0.12500000 -0.12500000  0.12500000       0.031
   0.37500000 -0.12500000  0.12500000       0.031
  -0.37500000 -0.12500000  0.12500000       0.031
  -0.12500000 -0.12500000  0.12500000       0.031
   0.12500000  0.12500000  0.37500000       0.031
   0.37500000  0.12500000  0.37500000       0.031
  -0.37500000  0.12500000  0.37500000       0.031
  -0.12500000  0.12500000  0.37500000       0.031
   0.12500000  0.37500000  0.37500000       0.031
   0.37500000  0.37500000  0.37500000       0.031
  -0.37500000  0.37500000  0.37500000       0.031
  -0.12500000  0.37500000  0.37500000       0.031
   0.12500000 -0.37500000  0.37500000       0.031
   0.37500000 -0.37500000  0.37500000       0.031
  -0.37500000 -0.37500000  0.37500000       0.031
  -0.12500000 -0.37500000  0.37500000       0.031
   0.12500000 -0.12500000  0.37500000       0.031
   0.37500000 -0.12500000  0.37500000       0.031
  -0.37500000 -0.12500000  0.37500000       0.031
  -0.12500000 -0.12500000  0.37500000       0.031
 
 position of ions in fractional coordinates (direct lattice) 
   0.25171381  0.99929571  0.25182806
   0.75185432  0.00059242  0.25172786
   0.24996326  0.50133912  0.25223167
   0.75191937  0.49908236  0.24850037
   0.25227027  0.99923638  0.74898131
   0.74824996  0.99808241  0.75018749
   0.24904540  0.49888289  0.75214843
   0.75006778  0.50025199  0.74741024
   0.12718197  0.12547301  0.12366201
   0.62647544  0.12700427  0.12423781
   0.12306404  0.62329627  0.12535259
   0.62557331  0.62509549  0.12753715
   0.12354293  0.12484446  0.62715121
   0.62295351  0.12525471  0.62341193
   0.12361960  0.62386252  0.62689093
   0.62258217  0.62571742  0.62564370
   0.25068725  0.24766718  0.99907233
   0.75117843  0.25188921  0.99865198
   0.24934576  0.75193638  0.00161163
   0.75137892  0.75024957  0.99780654
   0.25091612  0.25043394  0.49760263
   0.75220482  0.24865103  0.50030663
   0.25212742  0.75113578  0.49902070
   0.75023248  0.74744524  0.49955946
   0.12493924  0.37244079  0.37547083
   0.62700305  0.37629577  0.37604101
   0.12649023  0.87694688  0.37412602
   0.62301197  0.87332961  0.37518023
   0.12628061  0.37497870  0.87273405
   0.62608496  0.37730475  0.87553473
   0.12248331  0.87543756  0.87549974
   0.62480986  0.87581219  0.87746559
   0.99895608  0.00238295  0.99991797
   0.49934519  0.99758253  0.99929149
   0.99948234  0.49747871  0.99961261
   0.50057964  0.50252958  0.99979947
   0.99818614  0.00172080  0.50072368
   0.49768619  0.00115063  0.50031193
   0.00017461  0.50084443  0.50245589
   0.50129632  0.49817562  0.49867104
   0.37570124  0.12600732  0.37729533
   0.87409032  0.12719613  0.37393960
   0.37615527  0.62704382  0.37612388
   0.87249107  0.62506017  0.37430965
   0.37756472  0.12456623  0.87490511
   0.87306637  0.12327638  0.87525526
   0.37633525  0.62642893  0.87671761
   0.87636721  0.62403349  0.87699287
   0.00201058  0.24956037  0.25159350
   0.49872085  0.24774861  0.25026450
   0.99841954  0.75204211  0.25032690
   0.49740700  0.75021382  0.25007458
   0.99798659  0.24913769  0.75140625
   0.50047256  0.24785234  0.74860746
   0.00021669  0.74823240  0.74810169
   0.49934439  0.75126487  0.75217835
   0.37655565  0.37676997  0.12389450
   0.87455511  0.37279954  0.12368280
   0.37298905  0.87343977  0.12445528
   0.87692503  0.87395845  0.12640868
   0.37620769  0.37702851  0.62390384
   0.87391856  0.37715988  0.62403029
   0.37362537  0.87285873  0.62554802
   0.87567178  0.87453993  0.62747225
 
 position of ions in cartesian coordinates  (Angst):
   2.90118390 11.51760659  2.90250066
   8.66566538  0.00682806  2.90134580
   2.88100758  5.77829636  2.90715261
   8.66641512  5.75228549  2.86414664
   2.90759745 11.51692270  8.63255187
   8.62412251 11.50362238  8.64645399
   2.87042850  5.74998653  8.66905521
   8.64507420  5.76576632  8.61444414
   1.46586426  1.44616731  1.42529416
   7.22058297  1.46381620  1.43193075
   1.41840218  7.18394079  1.44477940
   7.21018531  7.20467807  1.46995803
   1.42392168  1.43892278  7.22837173
   7.17999026  1.44365119  7.18527385
   1.42480544  7.19046725  7.22537180
   7.17571022  7.21184626  7.21099656
   2.88935210  2.85454353 11.51503193
   8.65787521  2.90320550 11.51018712
   2.87389037  8.66661118  0.01857519
   8.66018602  8.64716943 11.50044282
   2.89198991  2.88643252  5.73523060
   8.66970510  2.86588316  5.76639615
   2.90595109  8.65738368  5.75157487
   8.64697254  8.61484749  5.75778440
   1.44001517  4.29264971  4.32757317
   7.22666414  4.33708118  4.33414494
   1.45789147 10.10744766  4.31207326
   7.18066401 10.06575605  4.32422378
   1.45547548  4.32190106 10.05889179
   7.21608245  4.34871042 10.09117166
   1.41170878 10.09005171 10.09076840
   7.20138600 10.09436959 10.11342623
  11.51369202  0.02746520 11.52477853
   5.75531479 11.49786086 11.51755790
  11.51975761  5.73380230 11.52125903
   5.76954278  5.79201720 11.52341276
  11.50481801  0.01983352  5.77120291
   5.73619369  0.01326179  5.76645727
   0.00201248  5.77259471  5.79116791
   5.77780306  5.74183474  5.74754472
   4.33022876  1.45232559  4.34860180
  10.07452384  1.46602751  4.30992463
   4.33546179  7.22713404  4.33509998
  10.05609121  7.20427095  4.31418977
   4.35170676  1.43571598 10.08391487
  10.06272205  1.42084950 10.08795059
   4.33753625  7.22004699 10.10480525
  10.10076661  7.19243781 10.10797781
   0.02317343  2.87636394  2.89979720
   5.74811886  2.85548209  2.88447960
  11.50750801  8.66782981  2.88519878
   5.73297575  8.64675738  2.88229054
  11.50251800  2.87149223  8.66050109
   5.76830861  2.85667762  8.62824293
   0.00249746  8.62392016  8.62241356
   5.75530560  8.65887154  8.66940011
   4.34007646  4.34254665  1.42797382
  10.07988085  4.29678465  1.42553380
   4.29896886 10.06702573  1.43443719
  10.10719587 10.07300391  1.45695159
   4.33606606  4.34552654  7.19094343
  10.07254414  4.34704072  7.19240085
   4.30630290 10.06032885  7.20989378
  10.09275125 10.07970590  7.23207192
 


--------------------------------------------------------------------------------------------------------


 k-point  1 :   0.1250 0.1250 0.1250  plane waves:   38875
 k-point  2 :   0.3750 0.1250 0.1250  plane waves:   38859
 k-point  3 :  -0.3750 0.1250 0.1250  plane waves:   38859
 k-point  4 :  -0.1250 0.1250 0.1250  plane waves:   38875
 k-point  5 :   0.1250 0.3750 0.1250  plane waves:   38859
 k-point  6 :   0.3750 0.3750 0.1250  plane waves:   38907
 k-point  7 :  -0.3750 0.3750 0.1250  plane waves:   38907
 k-point  8 :  -0.1250 0.3750 0.1250  plane waves:   38859
 k-point  9 :   0.1250-0.3750 0.1250  plane waves:   38859
 k-point 10 :   0.3750-0.3750 0.1250  plane waves:   38907
 k-point 11 :  -0.3750-0.3750 0.1250  plane waves:   38907
 k-point 12 :  -0.1250-0.3750 0.1250  plane waves:   38859
 k-point 13 :   0.1250-0.1250 0.1250  plane waves:   38875
 k-point 14 :   0.3750-0.1250 0.1250  plane waves:   38859
 k-point 15 :  -0.3750-0.1250 0.1250  plane waves:   38859
 k-point 16 :  -0.1250-0.1250 0.1250  plane waves:   38875
 k-point 17 :   0.1250 0.1250 0.3750  plane waves:   38859
 k-point 18 :   0.3750 0.1250 0.3750  plane waves:   38907
 k-point 19 :  -0.3750 0.1250 0.3750  plane waves:   38907
 k-point 20 :  -0.1250 0.1250 0.3750  plane waves:   38859
 k-point 21 :   0.1250 0.3750 0.3750  plane waves:   38907
 k-point 22 :   0.3750 0.3750 0.3750  plane waves:   38892
 k-point 23 :  -0.3750 0.3750 0.3750  plane waves:   38892
 k-point 24 :  -0.1250 0.3750 0.3750  plane waves:   38907
 k-point 25 :   0.1250-0.3750 0.3750  plane waves:   38907
 k-point 26 :   0.3750-0.3750 0.3750  plane waves:   38892
 k-point 27 :  -0.3750-0.3750 0.3750  plane waves:   38892
 k-point 28 :  -0.1250-0.3750 0.3750  plane waves:   38907
 k-point 29 :   0.1250-0.1250 0.3750  plane waves:   38859
 k-point 30 :   0.3750-0.1250 0.3750  plane waves:   38907
 k-point 31 :  -0.3750-0.1250 0.3750  plane waves:   38907
 k-point 32 :  -0.1250-0.1250 0.3750  plane waves:   38859

 maximum and minimum number of plane-waves per node :      9775     9684

 maximum number of plane-waves:     38907
 maximum index in each direction: 
   IXMAX=   21   IYMAX=   21   IZMAX=   20
   IXMIN=  -21   IYMIN=  -21   IZMIN=  -21


 parallel 3D FFT for wavefunctions:
    minimum data exchange during FFTs selected (reduces bandwidth)
 parallel 3D FFT for charge:
    minimum data exchange during FFTs selected (reduces bandwidth)


 total amount of memory used by VASP MPI-rank0   815258. kBytes
=======================================================================

   base      :      30000. kBytes
   nonl-proj :      54945. kBytes
   fftplans  :      14849. kBytes
   grid      :      20975. kBytes
   one-center:        248. kBytes
   wavefun   :     694241. kBytes
 
     INWAV:  cpu time    0.0001: real time    0.0002
 Broyden mixing: mesh for mixing (old mesh)
   NGX = 43   NGY = 43   NGZ = 43
  (NGX  =168   NGY  =168   NGZ  =168)
  gives a total of  79507 points

 initial charge density was supplied:
 charge density of overlapping atoms calculated
 number of electron     896.0000000 magnetization 
 keeping initial charge density in first step


--------------------------------------------------------------------------------------------------------


 Maximum index for augmentation-charges         1128 (set IRDMAX)


--------------------------------------------------------------------------------------------------------


 First call to EWALD:  gamma=   0.154
 Maximum number of real-space cells 3x 3x 3
 Maximum number of reciprocal cells 3x 3x 3

    FEWALD:  cpu time    0.0026: real time    0.0026


--------------------------------------- Iteration      1(   1)  ---------------------------------------


    POTLOK:  cpu time    0.1329: real time    0.1348
    SETDIJ:  cpu time    0.0115: real time    0.0115
     EDDAV:  cpu time  302.3971: real time  303.1488
       DOS:  cpu time    0.0063: real time    0.0063
    --------------------------------------------
      LOOP:  cpu time  302.5478: real time  303.3015

 eigenvalue-minimisations  : 35344
 total energy-change (2. order) : 0.1544516E+05  (-0.3290112E+05)
 number of electron     896.0000000 magnetization 
 augmentation part      896.0000000 magnetization 

 Free energy of the ion-electron system (eV)
  ---------------------------------------------------
  alpha Z        PSCENC =      3918.90069524
  Ewald energy   TEWEN  =    -84409.64015950
  -Hartree energ DENC   =    -49451.73068374
  -exchange      EXHF   =         0.00000000
  -V(xc)+E(xc)   XCENC  =      4666.10382313
  PAW double counting   =    117543.41335672  -145381.04144143
  entropy T*S    EENTRO =        -0.00310281
  eigenvalues    EBANDS =      2399.99495675
  atomic energy  EATOM  =    166159.16208934
  Solvation  Ediel_sol  =         0.00000000
  ---------------------------------------------------
  free energy    TOTEN  =     15445.15953371 eV

  energy without entropy =    15445.16263652  energy(sigma->0) =    15445.16108511


--------------------------------------------------------------------------------------------------------




--------------------------------------- Iteration      1(   2)  ---------------------------------------


     EDDAV:  cpu time  297.0641: real time  297.8037
       DOS:  cpu time    0.0063: real time    0.0063
    --------------------------------------------
      LOOP:  cpu time  297.0704: real time  297.8100

 eigenvalue-minimisations  : 34560
 total energy-change (2. order) :-0.1218620E+05  (-0.1178752E+05)
 number of electron     896.0000000 magnetization 
 augmentation part      896.0000000 magnetization 

 Free energy of the ion-electron system (eV)
  ---------------------------------------------------
  alpha Z        PSCENC =      3918.90069524
  Ewald energy   TEWEN  =    -84409.64015950
  -Hartree energ DENC   =    -49451.73068374
  -exchange      EXHF   =         0.00000000
  -V(xc)+E(xc)   XCENC  =      4666.10382313
  PAW double counting   =    117543.41335672  -145381.04144143
  entropy T*S    EENTRO =        -0.00726695
  eigenvalues    EBANDS =     -9786.20072596
  atomic energy  EATOM  =    166159.16208934
  Solvation  Ediel_sol  =         0.00000000
  ---------------------------------------------------
  free energy    TOTEN  =      3258.95968685 eV

  energy without entropy =     3258.96695380  energy(sigma->0) =     3258.96332033


--------------------------------------------------------------------------------------------------------




--------------------------------------- Iteration      1(   3)  ---------------------------------------


     EDDAV:  cpu time  297.1714: real time  297.9132
       DOS:  cpu time    0.0063: real time    0.0063
    --------------------------------------------
      LOOP:  cpu time  297.1777: real time  297.9195

 eigenvalue-minimisations  : 34560
 total energy-change (2. order) :-0.2989333E+04  (-0.2841196E+04)
 number of electron     896.0000000 magnetization 
 augmentation part      896.0000000 magnetization 

 Free energy of the ion-electron system (eV)
  ---------------------------------------------------
  alpha Z        PSCENC =      3918.90069524
  Ewald energy   TEWEN  =    -84409.64015950
  -Hartree energ DENC   =    -49451.73068374
  -exchange      EXHF   =         0.00000000
  -V(xc)+E(xc)   XCENC  =      4666.10382313
  PAW double counting   =    117543.41335672  -145381.04144143
  entropy T*S    EENTRO =        -0.00644453
  eigenvalues    EBANDS =    -12775.53454370
  atomic energy  EATOM  =    166159.16208934
  Solvation  Ediel_sol  =         0.00000000
  ---------------------------------------------------
  free energy    TOTEN  =       269.62669154 eV

  energy without entropy =      269.63313607  energy(sigma->0) =      269.62991380


--------------------------------------------------------------------------------------------------------




--------------------------------------- Iteration      1(   4)  ---------------------------------------


     EDDAV:  cpu time  327.1874: real time  328.0018
       DOS:  cpu time    0.0059: real time    0.0059
    --------------------------------------------
      LOOP:  cpu time  327.1933: real time  328.0077

 eigenvalue-minimisations  : 39008
 total energy-change (2. order) :-0.5172910E+03  (-0.4779565E+03)
 number of electron     896.0000000 magnetization 
 augmentation part      896.0000000 magnetization 

 Free energy of the ion-electron system (eV)
  ---------------------------------------------------
  alpha Z        PSCENC =      3918.90069524
  Ewald energy   TEWEN  =    -84409.64015950
  -Hartree energ DENC   =    -49451.73068374
  -exchange      EXHF   =         0.00000000
  -V(xc)+E(xc)   XCENC  =      4666.10382313
  PAW double counting   =    117543.41335672  -145381.04144143
  entropy T*S    EENTRO =        -0.00011994
  eigenvalues    EBANDS =    -13292.83191467
  atomic energy  EATOM  =    166159.16208934
  Solvation  Ediel_sol  =         0.00000000
  ---------------------------------------------------
  free energy    TOTEN  =      -247.66435485 eV

  energy without entropy =     -247.66423491  energy(sigma->0) =     -247.66429488


--------------------------------------------------------------------------------------------------------




--------------------------------------- Iteration      1(   5)  ---------------------------------------


     EDDAV:  cpu time  329.0362: real time  329.8554
       DOS:  cpu time    0.0049: real time    0.0049
    CHARGE:  cpu time    5.1577: real time    5.1704
    MIXING:  cpu time    0.0048: real time    0.0048
    --------------------------------------------
      LOOP:  cpu time  334.2035: real time  335.0356

 eigenvalue-minimisations  : 39304
 total energy-change (2. order) :-0.4221138E+02  (-0.4109461E+02)
 number of electron     896.0000068 magnetization 
 augmentation part      539.3242161 magnetization 

 Broyden mixing:
  rms(total) = 0.18251E+01    rms(broyden)= 0.18251E+01
  rms(prec ) = 0.20610E+01
  weight for this iteration     100.00

 Free energy of the ion-electron system (eV)
  ---------------------------------------------------
  alpha Z        PSCENC =      3918.90069524
  Ewald energy   TEWEN  =    -84409.64015950
  -Hartree energ DENC   =    -49451.73068374
  -exchange      EXHF   =         0.00000000
  -V(xc)+E(xc)   XCENC  =      4666.10382313
  PAW double counting   =    117543.41335672  -145381.04144143
  entropy T*S    EENTRO =        -0.00000045
  eigenvalues    EBANDS =    -13335.04341600
  atomic energy  EATOM  =    166159.16208934
  Solvation  Ediel_sol  =         0.00000000
  ---------------------------------------------------
  free energy    TOTEN  =      -289.87573667 eV

  energy without entropy =     -289.87573623  energy(sigma->0) =     -289.87573645


--------------------------------------------------------------------------------------------------------




--------------------------------------- Iteration      1(   6)  ---------------------------------------


    POTLOK:  cpu time    0.1263: real time    0.1279
    SETDIJ:  cpu time    0.0103: real time    0.0103
     EDDAV:  cpu time  346.4586: real time  347.3226
       DOS:  cpu time    0.0061: real time    0.0061
    CHARGE:  cpu time    6.8952: real time    6.9124
    MIXING:  cpu time    0.0049: real time    0.0049
    --------------------------------------------
      LOOP:  cpu time  353.5013: real time  354.3842

 eigenvalue-minimisations  : 38760
 total energy-change (2. order) : 0.2792273E+00  (-0.1314104E+01)
 number of electron     896.0000068 magnetization 
 augmentation part      539.2082840 magnetization 

 Broyden mixing:
  rms(total) = 0.96182E+00    rms(broyden)= 0.96182E+00
  rms(prec ) = 0.11220E+01
  weight for this iteration     100.00

 eigenvalues of (default mixing * dielectric matrix)
  average eigenvalue GAMMA=   1.9642
  1.9642

 Free energy of the ion-electron system (eV)
  ---------------------------------------------------
  alpha Z        PSCENC =      3918.90069524
  Ewald energy   TEWEN  =    -84409.64015950
  -Hartree energ DENC   =    -49418.66466023
  -exchange      EXHF   =         0.00000000
  -V(xc)+E(xc)   XCENC  =      4660.68098405
  PAW double counting   =    128149.66802642  -156036.64233173
  entropy T*S    EENTRO =        -0.00001069
  eigenvalues    EBANDS =    -13313.06114233
  atomic energy  EATOM  =    166159.16208934
  Solvation  Ediel_sol  =         0.00000000
  ---------------------------------------------------
  free energy    TOTEN  =      -289.59650942 eV

  energy without entropy =     -289.59649873  energy(sigma->0) =     -289.59650408


--------------------------------------------------------------------------------------------------------




--------------------------------------- Iteration      1(   7)  ---------------------------------------


    POTLOK:  cpu time    0.1445: real time    0.1463
    SETDIJ:  cpu time    0.0121: real time    0.0121
     EDDAV:  cpu time  383.2961: real time  384.2533
       DOS:  cpu time    0.0073: real time    0.0139
    CHARGE:  cpu time    6.8100: real time    6.8270
    MIXING:  cpu time    0.0045: real time    0.0045
    --------------------------------------------
      LOOP:  cpu time  390.2746: real time  391.2572

 eigenvalue-minimisations  : 38824
 total energy-change (2. order) : 0.7654982E+00  (-0.1654662E+00)
 number of electron     896.0000068 magnetization 
 augmentation part      539.3717135 magnetization 

 Broyden mixing:
  rms(total) = 0.18056E+00    rms(broyden)= 0.18056E+00
  rms(prec ) = 0.22008E+00
  weight for this iteration     100.00

 eigenvalues of (default mixing * dielectric matrix)
  average eigenvalue GAMMA=   1.8146
  1.0995  2.5296

 Free energy of the ion-electron system (eV)
  ---------------------------------------------------
  alpha Z        PSCENC =      3918.90069524
  Ewald energy   TEWEN  =    -84409.64015950
  -Hartree energ DENC   =    -49434.37713192
  -exchange      EXHF   =         0.00000000
  -V(xc)+E(xc)   XCENC  =      4656.86721056
  PAW double counting   =    139810.11269824  -167783.40001538
  entropy T*S    EENTRO =        -0.00013221
  eigenvalues    EBANDS =    -13206.45626561
  atomic energy  EATOM  =    166159.16208934
  Solvation  Ediel_sol  =         0.00000000
  ---------------------------------------------------
  free energy    TOTEN  =      -288.83101123 eV

  energy without entropy =     -288.83087902  energy(sigma->0) =     -288.83094513


--------------------------------------------------------------------------------------------------------




--------------------------------------- Iteration      1(   8)  ---------------------------------------


    POTLOK:  cpu time    0.1488: real time    0.1564
    SETDIJ:  cpu time    0.0119: real time    0.0119
     EDDAV:  cpu time  391.3518: real time  392.3301
       DOS:  cpu time    0.0072: real time    0.0072
    CHARGE:  cpu time    6.9479: real time    6.9653
    MIXING:  cpu time    0.0056: real time    0.0056
    --------------------------------------------
      LOOP:  cpu time  398.4732: real time  399.4764

 eigenvalue-minimisations  : 39840
 total energy-change (2. order) :-0.3608456E-01  (-0.2701453E-01)
 number of electron     896.0000068 magnetization 
 augmentation part      539.4073234 magnetization 

 Broyden mixing:
  rms(total) = 0.58532E-01    rms(broyden)= 0.58532E-01
  rms(prec ) = 0.65597E-01
  weight for this iteration     100.00

 eigenvalues of (default mixing * dielectric matrix)
  average eigenvalue GAMMA=   1.7243
  2.5932  0.9037  1.6762

 Free energy of the ion-electron system (eV)
  ---------------------------------------------------
  alpha Z        PSCENC =      3918.90069524
  Ewald energy   TEWEN  =    -84409.64015950
  -Hartree energ DENC   =    -49443.29756078
  -exchange      EXHF   =         0.00000000
  -V(xc)+E(xc)   XCENC  =      4656.24054239
  PAW double counting   =    142214.22838032  -170204.46175634
  entropy T*S    EENTRO =        -0.00017923
  eigenvalues    EBANDS =    -13179.99914723
  atomic energy  EATOM  =    166159.16208934
  Solvation  Ediel_sol  =         0.00000000
  ---------------------------------------------------
  free energy    TOTEN  =      -288.86709579 eV

  energy without entropy =     -288.86691656  energy(sigma->0) =     -288.86700617


--------------------------------------------------------------------------------------------------------




--------------------------------------- Iteration      1(   9)  ---------------------------------------


    POTLOK:  cpu time    0.1482: real time    0.1507
    SETDIJ:  cpu time    0.0123: real time    0.0123
     EDDAV:  cpu time  431.4109: real time  432.4878
       DOS:  cpu time    0.0072: real time    0.0072
    CHARGE:  cpu time    6.9654: real time    6.9827
    MIXING:  cpu time    0.0053: real time    0.0053
    --------------------------------------------
      LOOP:  cpu time  438.5492: real time  439.6461

 eigenvalue-minimisations  : 44976
 total energy-change (2. order) :-0.2785166E-01  (-0.1179324E-01)
 number of electron     896.0000069 magnetization 
 augmentation part      539.4619749 magnetization 

 Broyden mixing:
  rms(total) = 0.32904E-01    rms(broyden)= 0.32904E-01
  rms(prec ) = 0.36684E-01
  weight for this iteration     100.00

 eigenvalues of (default mixing * dielectric matrix)
  average eigenvalue GAMMA=   1.7977
  2.6726  2.6726  1.0103  0.8353

 Free energy of the ion-electron system (eV)
  ---------------------------------------------------
  alpha Z        PSCENC =      3918.90069524
  Ewald energy   TEWEN  =    -84409.64015950
  -Hartree energ DENC   =    -49451.02062835
  -exchange      EXHF   =         0.00000000
  -V(xc)+E(xc)   XCENC  =      4656.47484202
  PAW double counting   =    141872.17641114  -169861.47018600
  entropy T*S    EENTRO =        -0.00014540
  eigenvalues    EBANDS =    -13173.47786594
  atomic energy  EATOM  =    166159.16208934
  Solvation  Ediel_sol  =         0.00000000
  ---------------------------------------------------
  free energy    TOTEN  =      -288.89494744 eV

  energy without entropy =     -288.89480204  energy(sigma->0) =     -288.89487474


--------------------------------------------------------------------------------------------------------




--------------------------------------- Iteration      1(  10)  ---------------------------------------


    POTLOK:  cpu time    0.1452: real time    0.1469
    SETDIJ:  cpu time    0.0118: real time    0.0118
     EDDAV:  cpu time  385.6812: real time  386.6437
       DOS:  cpu time    0.0071: real time    0.0071
    CHARGE:  cpu time    7.0263: real time    7.0438
    MIXING:  cpu time    0.0053: real time    0.0053
    --------------------------------------------
      LOOP:  cpu time  392.8769: real time  393.8587

 eigenvalue-minimisations  : 39168
 total energy-change (2. order) :-0.6236497E-02  (-0.2380905E-02)
 number of electron     896.0000069 magnetization 
 augmentation part      539.4685192 magnetization 

 Broyden mixing:
  rms(total) = 0.10243E-01    rms(broyden)= 0.10243E-01
  rms(prec ) = 0.11619E-01
  weight for this iteration     100.00

 eigenvalues of (default mixing * dielectric matrix)
  average eigenvalue GAMMA=   1.7405
  2.9236  2.5407  1.5723  0.9612  0.7048

 Free energy of the ion-electron system (eV)
  ---------------------------------------------------
  alpha Z        PSCENC =      3918.90069524
  Ewald energy   TEWEN  =    -84409.64015950
  -Hartree energ DENC   =    -49460.65087261
  -exchange      EXHF   =         0.00000000
  -V(xc)+E(xc)   XCENC  =      4656.86019288
  PAW double counting   =    141470.78006182  -169462.70974428
  entropy T*S    EENTRO =        -0.00011634
  eigenvalues    EBANDS =    -13161.60333050
  atomic energy  EATOM  =    166159.16208934
  Solvation  Ediel_sol  =         0.00000000
  ---------------------------------------------------
  free energy    TOTEN  =      -288.90118394 eV

  energy without entropy =     -288.90106760  energy(sigma->0) =     -288.90112577


--------------------------------------------------------------------------------------------------------




--------------------------------------- Iteration      1(  11)  ---------------------------------------


    POTLOK:  cpu time    0.1461: real time    0.1483
    SETDIJ:  cpu time    0.0121: real time    0.0122
     EDDAV:  cpu time  401.1147: real time  402.1169
       DOS:  cpu time    0.0070: real time    0.0073
    CHARGE:  cpu time    7.3914: real time    7.4097
    MIXING:  cpu time    0.0066: real time    0.0066
    --------------------------------------------
      LOOP:  cpu time  408.6780: real time  409.7010

 eigenvalue-minimisations  : 41184
 total energy-change (2. order) :-0.1797955E-03  (-0.3267264E-03)
 number of electron     896.0000069 magnetization 
 augmentation part      539.4693444 magnetization 

 Broyden mixing:
  rms(total) = 0.40101E-02    rms(broyden)= 0.40100E-02
  rms(prec ) = 0.44740E-02
  weight for this iteration     100.00

 eigenvalues of (default mixing * dielectric matrix)
  average eigenvalue GAMMA=   1.6640
  3.0824  2.5242  1.7108  0.9627  0.9627  0.7415

 Free energy of the ion-electron system (eV)
  ---------------------------------------------------
  alpha Z        PSCENC =      3918.90069524
  Ewald energy   TEWEN  =    -84409.64015950
  -Hartree energ DENC   =    -49462.59435608
  -exchange      EXHF   =         0.00000000
  -V(xc)+E(xc)   XCENC  =      4656.92360684
  PAW double counting   =    141524.96013837  -169518.47729033
  entropy T*S    EENTRO =        -0.00011306
  eigenvalues    EBANDS =    -13158.13597456
  atomic energy  EATOM  =    166159.16208934
  Solvation  Ediel_sol  =         0.00000000
  ---------------------------------------------------
  free energy    TOTEN  =      -288.90136374 eV

  energy without entropy =     -288.90125068  energy(sigma->0) =     -288.90130721


--------------------------------------------------------------------------------------------------------




--------------------------------------- Iteration      1(  12)  ---------------------------------------


    POTLOK:  cpu time    0.1486: real time    0.1528
    SETDIJ:  cpu time    0.0118: real time    0.0118
     EDDAV:  cpu time  403.5823: real time  404.5897
       DOS:  cpu time    0.0071: real time    0.0085
    CHARGE:  cpu time    7.3920: real time    7.4108
    MIXING:  cpu time    0.0064: real time    0.0064
    --------------------------------------------
      LOOP:  cpu time  411.1483: real time  412.1801

 eigenvalue-minimisations  : 41528
 total energy-change (2. order) :-0.3652493E-03  (-0.2935065E-03)
 number of electron     896.0000069 magnetization 
 augmentation part      539.4639663 magnetization 

 Broyden mixing:
  rms(total) = 0.31460E-02    rms(broyden)= 0.31459E-02
  rms(prec ) = 0.33815E-02
  weight for this iteration     100.00

 eigenvalues of (default mixing * dielectric matrix)
  average eigenvalue GAMMA=   1.5475
  3.1063  2.5320  1.7194  0.9896  0.9896  0.8529  0.6427

 Free energy of the ion-electron system (eV)
  ---------------------------------------------------
  alpha Z        PSCENC =      3918.90069524
  Ewald energy   TEWEN  =    -84409.64015950
  -Hartree energ DENC   =    -49463.16913300
  -exchange      EXHF   =         0.00000000
  -V(xc)+E(xc)   XCENC  =      4656.93785161
  PAW double counting   =    141547.27450256  -169540.84995096
  entropy T*S    EENTRO =        -0.00011116
  eigenvalues    EBANDS =    -13157.51751313
  atomic energy  EATOM  =    166159.16208934
  Solvation  Ediel_sol  =         0.00000000
  ---------------------------------------------------
  free energy    TOTEN  =      -288.90172899 eV

  energy without entropy =     -288.90161783  energy(sigma->0) =     -288.90167341


--------------------------------------------------------------------------------------------------------




--------------------------------------- Iteration      1(  13)  ---------------------------------------


    POTLOK:  cpu time    0.1443: real time    0.1454
    SETDIJ:  cpu time    0.0123: real time    0.0124
     EDDAV:  cpu time  416.1677: real time  417.2071
       DOS:  cpu time    0.0068: real time    0.0068
    CHARGE:  cpu time    7.3902: real time    7.4085
    MIXING:  cpu time    0.0061: real time    0.0061
    --------------------------------------------
      LOOP:  cpu time  423.7274: real time  424.7863

 eigenvalue-minimisations  : 43168
 total energy-change (2. order) : 0.7130293E-05  (-0.9491989E-05)
 number of electron     896.0000069 magnetization 
 augmentation part      539.4646612 magnetization 

 Broyden mixing:
  rms(total) = 0.19522E-02    rms(broyden)= 0.19522E-02
  rms(prec ) = 0.20755E-02
  weight for this iteration     100.00

 eigenvalues of (default mixing * dielectric matrix)
  average eigenvalue GAMMA=   1.6019
  3.0935  2.5578  1.6619  1.6619  1.4177  0.9425  0.7785  0.7013

 Free energy of the ion-electron system (eV)
  ---------------------------------------------------
  alpha Z        PSCENC =      3918.90069524
  Ewald energy   TEWEN  =    -84409.64015950
  -Hartree energ DENC   =    -49462.90716646
  -exchange      EXHF   =         0.00000000
  -V(xc)+E(xc)   XCENC  =      4656.92458835
  PAW double counting   =    141555.89496788  -169549.01308522
  entropy T*S    EENTRO =        -0.00011086
  eigenvalues    EBANDS =    -13158.22354063
  atomic energy  EATOM  =    166159.16208934
  Solvation  Ediel_sol  =         0.00000000
  ---------------------------------------------------
  free energy    TOTEN  =      -288.90172186 eV

  energy without entropy =     -288.90161100  energy(sigma->0) =     -288.90166643


--------------------------------------------------------------------------------------------------------




--------------------------------------- Iteration      1(  14)  ---------------------------------------


    POTLOK:  cpu time    0.1441: real time    0.1444
    SETDIJ:  cpu time    0.0121: real time    0.0121
     EDDAV:  cpu time  411.0131: real time  412.0395
       DOS:  cpu time    0.0068: real time    0.0068
    CHARGE:  cpu time    7.3176: real time    7.3359
    MIXING:  cpu time    0.0061: real time    0.0061
    --------------------------------------------
      LOOP:  cpu time  418.4997: real time  419.5449

 eigenvalue-minimisations  : 42520
 total energy-change (2. order) : 0.9312062E-06  (-0.6209525E-05)
 number of electron     896.0000069 magnetization 
 augmentation part      539.4665460 magnetization 

 Broyden mixing:
  rms(total) = 0.39732E-03    rms(broyden)= 0.39730E-03
  rms(prec ) = 0.46309E-03
  weight for this iteration     100.00

 eigenvalues of (default mixing * dielectric matrix)
  average eigenvalue GAMMA=   1.5645
  3.1585  2.5748  2.0747  1.8500  1.0404  1.0404  0.7334  0.8043  0.8043

 Free energy of the ion-electron system (eV)
  ---------------------------------------------------
  alpha Z        PSCENC =      3918.90069524
  Ewald energy   TEWEN  =    -84409.64015950
  -Hartree energ DENC   =    -49462.53764653
  -exchange      EXHF   =         0.00000000
  -V(xc)+E(xc)   XCENC  =      4656.90573131
  PAW double counting   =    141569.84095031  -169562.41760321
  entropy T*S    EENTRO =        -0.00011069
  eigenvalues    EBANDS =    -13159.11566721
  atomic energy  EATOM  =    166159.16208934
  Solvation  Ediel_sol  =         0.00000000
  ---------------------------------------------------
  free energy    TOTEN  =      -288.90172092 eV

  energy without entropy =     -288.90161024  energy(sigma->0) =     -288.90166558


--------------------------------------------------------------------------------------------------------




--------------------------------------- Iteration      1(  15)  ---------------------------------------


    POTLOK:  cpu time    0.1437: real time    0.1445
    SETDIJ:  cpu time    0.0124: real time    0.0124
     EDDAV:  cpu time  364.2878: real time  365.1982
       DOS:  cpu time    0.0073: real time    0.0073
    CHARGE:  cpu time    7.5306: real time    7.5494
    MIXING:  cpu time    0.0061: real time    0.0061
    --------------------------------------------
      LOOP:  cpu time  371.9877: real time  372.9179

 eigenvalue-minimisations  : 36440
 total energy-change (2. order) :-0.1208071E-04  (-0.1037581E-04)
 number of electron     896.0000069 magnetization 
 augmentation part      539.4680457 magnetization 

 Broyden mixing:
  rms(total) = 0.56764E-03    rms(broyden)= 0.56759E-03
  rms(prec ) = 0.64603E-03
  weight for this iteration     100.00

 eigenvalues of (default mixing * dielectric matrix)
  average eigenvalue GAMMA=   1.4439
  3.1516  2.6055  2.2863  1.6717  1.1561  1.0212  0.7236  0.7621  0.7621  0.2991

 Free energy of the ion-electron system (eV)
  ---------------------------------------------------
  alpha Z        PSCENC =      3918.90069524
  Ewald energy   TEWEN  =    -84409.64015950
  -Hartree energ DENC   =    -49462.56572817
  -exchange      EXHF   =         0.00000000
  -V(xc)+E(xc)   XCENC  =      4656.90543987
  PAW double counting   =    141573.96229530  -169566.52532893
  entropy T*S    EENTRO =        -0.00011060
  eigenvalues    EBANDS =    -13159.10092556
  atomic energy  EATOM  =    166159.16208934
  Solvation  Ediel_sol  =         0.00000000
  ---------------------------------------------------
  free energy    TOTEN  =      -288.90173300 eV

  energy without entropy =     -288.90162240  energy(sigma->0) =     -288.90167770


--------------------------------------------------------------------------------------------------------




--------------------------------------- Iteration      1(  16)  ---------------------------------------


    POTLOK:  cpu time    0.1481: real time    0.1485
    SETDIJ:  cpu time    0.0123: real time    0.0123
     EDDAV:  cpu time  430.0772: real time  431.1519
       DOS:  cpu time    0.0072: real time    0.0072
    CHARGE:  cpu time    7.2176: real time    7.2356
    MIXING:  cpu time    0.0064: real time    0.0064
    --------------------------------------------
      LOOP:  cpu time  437.4688: real time  438.5619

 eigenvalue-minimisations  : 44320
 total energy-change (2. order) : 0.8667121E-07  (-0.4209808E-06)
 number of electron     896.0000069 magnetization 
 augmentation part      539.4681441 magnetization 

 Broyden mixing:
  rms(total) = 0.44353E-03    rms(broyden)= 0.44353E-03
  rms(prec ) = 0.50603E-03
  weight for this iteration     100.00

 eigenvalues of (default mixing * dielectric matrix)
  average eigenvalue GAMMA=   1.5202
  3.3000  2.5794  2.2994  1.5054  1.5054  1.2595  1.2595  0.9674  0.8042  0.6826
  0.5591

 Free energy of the ion-electron system (eV)
  ---------------------------------------------------
  alpha Z        PSCENC =      3918.90069524
  Ewald energy   TEWEN  =    -84409.64015950
  -Hartree energ DENC   =    -49462.58859755
  -exchange      EXHF   =         0.00000000
  -V(xc)+E(xc)   XCENC  =      4656.90628739
  PAW double counting   =    141574.81289561  -169567.40385884
  entropy T*S    EENTRO =        -0.00011058
  eigenvalues    EBANDS =    -13159.05097404
  atomic energy  EATOM  =    166159.16208934
  Solvation  Ediel_sol  =         0.00000000
  ---------------------------------------------------
  free energy    TOTEN  =      -288.90173292 eV

  energy without entropy =     -288.90162234  energy(sigma->0) =     -288.90167763


--------------------------------------------------------------------------------------------------------




--------------------------------------- Iteration      1(  17)  ---------------------------------------


    POTLOK:  cpu time    0.1493: real time    0.1498
    SETDIJ:  cpu time    0.0123: real time    0.0123
     EDDAV:  cpu time  428.5186: real time  429.5903
       DOS:  cpu time    0.0072: real time    0.0072
    CHARGE:  cpu time    7.3232: real time    7.3414
    MIXING:  cpu time    0.0066: real time    0.0067
    --------------------------------------------
      LOOP:  cpu time  436.0172: real time  437.1077

 eigenvalue-minimisations  : 44088
 total energy-change (2. order) : 0.4856847E-06  (-0.3188657E-06)
 number of electron     896.0000069 magnetization 
 augmentation part      539.4682863 magnetization 

 Broyden mixing:
  rms(total) = 0.18595E-03    rms(broyden)= 0.18595E-03
  rms(prec ) = 0.20096E-03
  weight for this iteration     100.00

 eigenvalues of (default mixing * dielectric matrix)
  average eigenvalue GAMMA=   1.5031
  3.3891  2.6146  2.2747  1.6769  1.6769  1.5585  1.1991  0.9475  0.7174  0.7177
  0.7177  0.5466

 Free energy of the ion-electron system (eV)
  ---------------------------------------------------
  alpha Z        PSCENC =      3918.90069524
  Ewald energy   TEWEN  =    -84409.64015950
  -Hartree energ DENC   =    -49462.79133141
  -exchange      EXHF   =         0.00000000
  -V(xc)+E(xc)   XCENC  =      4656.91498228
  PAW double counting   =    141573.68805966  -169566.51800467
  entropy T*S    EENTRO =        -0.00011045
  eigenvalues    EBANDS =    -13158.61795294
  atomic energy  EATOM  =    166159.16208934
  Solvation  Ediel_sol  =         0.00000000
  ---------------------------------------------------
  free energy    TOTEN  =      -288.90173243 eV

  energy without entropy =     -288.90162199  energy(sigma->0) =     -288.90167721


--------------------------------------------------------------------------------------------------------




--------------------------------------- Iteration      1(  18)  ---------------------------------------


    POTLOK:  cpu time    0.1457: real time    0.1465
    SETDIJ:  cpu time    0.0122: real time    0.0123
     EDDAV:  cpu time  408.5575: real time  409.5793
       DOS:  cpu time    0.0072: real time    0.0072
    CHARGE:  cpu time    7.1448: real time    7.1627
    MIXING:  cpu time    0.0068: real time    0.0068
    --------------------------------------------
      LOOP:  cpu time  415.8742: real time  416.9147

 eigenvalue-minimisations  : 41832
 total energy-change (2. order) :-0.5643524E-06  (-0.4847596E-06)
 number of electron     896.0000069 magnetization 
 augmentation part      539.4677865 magnetization 

 Broyden mixing:
  rms(total) = 0.19174E-03    rms(broyden)= 0.19173E-03
  rms(prec ) = 0.21454E-03
  weight for this iteration     100.00

 eigenvalues of (default mixing * dielectric matrix)
  average eigenvalue GAMMA=   1.4759
  3.2901  2.6326  2.2124  2.2124  1.4106  1.4106  1.2125  0.9174  0.9174  0.9402
  0.8012  0.7075  0.5218

 Free energy of the ion-electron system (eV)
  ---------------------------------------------------
  alpha Z        PSCENC =      3918.90069524
  Ewald energy   TEWEN  =    -84409.64015950
  -Hartree energ DENC   =    -49462.82790159
  -exchange      EXHF   =         0.00000000
  -V(xc)+E(xc)   XCENC  =      4656.91649587
  PAW double counting   =    141574.31343494  -169567.19335574
  entropy T*S    EENTRO =        -0.00011040
  eigenvalues    EBANDS =    -13158.53292116
  atomic energy  EATOM  =    166159.16208934
  Solvation  Ediel_sol  =         0.00000000
  ---------------------------------------------------
  free energy    TOTEN  =      -288.90173300 eV

  energy without entropy =     -288.90162259  energy(sigma->0) =     -288.90167779


--------------------------------------------------------------------------------------------------------




--------------------------------------- Iteration      1(  19)  ---------------------------------------


    POTLOK:  cpu time    0.1471: real time    0.1477
    SETDIJ:  cpu time    0.0122: real time    0.0122
     EDDAV:  cpu time  416.2906: real time  417.3311
       DOS:  cpu time    0.0074: real time    0.0074
    CHARGE:  cpu time    7.2718: real time    7.2899
    MIXING:  cpu time    0.0068: real time    0.0068
    --------------------------------------------
      LOOP:  cpu time  423.7358: real time  424.7951

 eigenvalue-minimisations  : 42496
 total energy-change (2. order) : 0.1509616E-06  (-0.3069336E-06)
 number of electron     896.0000069 magnetization 
 augmentation part      539.4676347 magnetization 

 Broyden mixing:
  rms(total) = 0.86246E-04    rms(broyden)= 0.86238E-04
  rms(prec ) = 0.93893E-04
  weight for this iteration     100.00

 eigenvalues of (default mixing * dielectric matrix)
  average eigenvalue GAMMA=   1.4605
  3.2248  2.6091  2.3321  2.3321  1.4529  1.4529  1.2625  1.0064  1.0064  0.9685
  0.7847  0.7847  0.7128  0.5166

 Free energy of the ion-electron system (eV)
  ---------------------------------------------------
  alpha Z        PSCENC =      3918.90069524
  Ewald energy   TEWEN  =    -84409.64015950
  -Hartree energ DENC   =    -49462.78378898
  -exchange      EXHF   =         0.00000000
  -V(xc)+E(xc)   XCENC  =      4656.91457544
  PAW double counting   =    141574.64237429  -169567.47124885
  entropy T*S    EENTRO =        -0.00011043
  eigenvalues    EBANDS =    -13158.62615940
  atomic energy  EATOM  =    166159.16208934
  Solvation  Ediel_sol  =         0.00000000
  ---------------------------------------------------
  free energy    TOTEN  =      -288.90173285 eV

  energy without entropy =     -288.90162242  energy(sigma->0) =     -288.90167763


--------------------------------------------------------------------------------------------------------




--------------------------------------- Iteration      1(  20)  ---------------------------------------


    POTLOK:  cpu time    0.1376: real time    0.1380
    SETDIJ:  cpu time    0.0117: real time    0.0117
     EDDAV:  cpu time  434.7137: real time  435.8001
       DOS:  cpu time    0.0070: real time    0.0070
    CHARGE:  cpu time    6.7483: real time    6.7651
    MIXING:  cpu time    0.0071: real time    0.0071
    --------------------------------------------
      LOOP:  cpu time  441.6253: real time  442.7290

 eigenvalue-minimisations  : 44792
 total energy-change (2. order) : 0.8015195E-07  (-0.4787477E-07)
 number of electron     896.0000069 magnetization 
 augmentation part      539.4676457 magnetization 

 Broyden mixing:
  rms(total) = 0.37280E-04    rms(broyden)= 0.37279E-04
  rms(prec ) = 0.40906E-04
  weight for this iteration     100.00

 eigenvalues of (default mixing * dielectric matrix)
  average eigenvalue GAMMA=   1.4930
  3.3570  2.6647  2.6647  1.6375  1.6375  1.7764  1.7764  1.2892  0.9545  0.9545
  0.9039  0.9039  0.7083  0.6512  0.5153

 Free energy of the ion-electron system (eV)
  ---------------------------------------------------
  alpha Z        PSCENC =      3918.90069524
  Ewald energy   TEWEN  =    -84409.64015950
  -Hartree energ DENC   =    -49462.76033803
  -exchange      EXHF   =         0.00000000
  -V(xc)+E(xc)   XCENC  =      4656.91349429
  PAW double counting   =    141574.94714865  -169567.74700993
  entropy T*S    EENTRO =        -0.00011045
  eigenvalues    EBANDS =    -13158.67754238
  atomic energy  EATOM  =    166159.16208934
  Solvation  Ediel_sol  =         0.00000000
  ---------------------------------------------------
  free energy    TOTEN  =      -288.90173277 eV

  energy without entropy =     -288.90162232  energy(sigma->0) =     -288.90167754


--------------------------------------------------------------------------------------------------------




--------------------------------------- Iteration      1(  21)  ---------------------------------------


    POTLOK:  cpu time    0.1395: real time    0.1403
    SETDIJ:  cpu time    0.0119: real time    0.0120
     EDDAV:  cpu time  405.0110: real time  406.0231
       DOS:  cpu time    0.0070: real time    0.0073
    CHARGE:  cpu time    6.8680: real time    6.8852
    MIXING:  cpu time    0.0074: real time    0.0075
    --------------------------------------------
      LOOP:  cpu time  412.0450: real time  413.0753

 eigenvalue-minimisations  : 41056
 total energy-change (2. order) : 0.1502340E-06  (-0.1891908E-07)
 number of electron     896.0000069 magnetization 
 augmentation part      539.4677114 magnetization 

 Broyden mixing:
  rms(total) = 0.43404E-04    rms(broyden)= 0.43404E-04
  rms(prec ) = 0.49015E-04
  weight for this iteration     100.00

 eigenvalues of (default mixing * dielectric matrix)
  average eigenvalue GAMMA=   1.4481
  3.2876  2.6557  2.6557  2.1024  2.1024  1.5219  1.5219  1.1595  0.9501  0.9501
  0.8601  0.8601  0.7895  0.7039  0.5174  0.5306

 Free energy of the ion-electron system (eV)
  ---------------------------------------------------
  alpha Z        PSCENC =      3918.90069524
  Ewald energy   TEWEN  =    -84409.64015950
  -Hartree energ DENC   =    -49462.73992593
  -exchange      EXHF   =         0.00000000
  -V(xc)+E(xc)   XCENC  =      4656.91251217
  PAW double counting   =    141575.17289290  -169567.94372452
  entropy T*S    EENTRO =        -0.00011045
  eigenvalues    EBANDS =    -13158.72600187
  atomic energy  EATOM  =    166159.16208934
  Solvation  Ediel_sol  =         0.00000000
  ---------------------------------------------------
  free energy    TOTEN  =      -288.90173262 eV

  energy without entropy =     -288.90162217  energy(sigma->0) =     -288.90167739


--------------------------------------------------------------------------------------------------------




--------------------------------------- Iteration      1(  22)  ---------------------------------------


    POTLOK:  cpu time    0.1402: real time    0.1447
    SETDIJ:  cpu time    0.0122: real time    0.0123
     EDDAV:  cpu time  324.9361: real time  325.7478
       DOS:  cpu time    0.0072: real time    0.0072
    CHARGE:  cpu time    6.8764: real time    6.8935
    MIXING:  cpu time    0.0080: real time    0.0081
    --------------------------------------------
      LOOP:  cpu time  331.9801: real time  332.8135

 eigenvalue-minimisations  : 30680
 total energy-change (2. order) :-0.7983181E-07  (-0.1380752E-07)
 number of electron     896.0000069 magnetization 
 augmentation part      539.4676851 magnetization 

 Broyden mixing:
  rms(total) = 0.32085E-04    rms(broyden)= 0.32085E-04
  rms(prec ) = 0.35931E-04
  weight for this iteration     100.00

 eigenvalues of (default mixing * dielectric matrix)
  average eigenvalue GAMMA=   1.4002
  3.3263  2.9678  2.4612  2.3218  1.8857  1.4993  1.4993  1.2219  0.9689  0.9689
  0.8785  0.8785  0.7331  0.6819  0.5043  0.5031  0.5031

 Free energy of the ion-electron system (eV)
  ---------------------------------------------------
  alpha Z        PSCENC =      3918.90069524
  Ewald energy   TEWEN  =    -84409.64015950
  -Hartree energ DENC   =    -49462.74853587
  -exchange      EXHF   =         0.00000000
  -V(xc)+E(xc)   XCENC  =      4656.91291223
  PAW double counting   =    141575.04888011  -169567.83055828
  entropy T*S    EENTRO =        -0.00011045
  eigenvalues    EBANDS =    -13158.70694552
  atomic energy  EATOM  =    166159.16208934
  Solvation  Ediel_sol  =         0.00000000
  ---------------------------------------------------
  free energy    TOTEN  =      -288.90173270 eV

  energy without entropy =     -288.90162225  energy(sigma->0) =     -288.90167747


--------------------------------------------------------------------------------------------------------




--------------------------------------- Iteration      1(  23)  ---------------------------------------


    POTLOK:  cpu time    0.1435: real time    0.1441
    SETDIJ:  cpu time    0.0121: real time    0.0122
     EDDAV:  cpu time  235.6833: real time  236.2719
       DOS:  cpu time    0.0073: real time    0.0073
    CHARGE:  cpu time    6.9084: real time    6.9257
    MIXING:  cpu time    0.0080: real time    0.0080
    --------------------------------------------
      LOOP:  cpu time  242.7626: real time  243.3691

 eigenvalue-minimisations  : 19392
 total energy-change (2. order) :-0.3635068E-07  (-0.7754461E-09)
 number of electron     896.0000069 magnetization 
 augmentation part      539.4676808 magnetization 

 Broyden mixing:
  rms(total) = 0.22221E-04    rms(broyden)= 0.22221E-04
  rms(prec ) = 0.24599E-04
  weight for this iteration     100.00

 eigenvalues of (default mixing * dielectric matrix)
  average eigenvalue GAMMA=   1.4136
  3.3402  2.5940  2.5810  2.5810  1.5446  1.5446  1.5353  1.5353  1.2693  0.8797
  0.8797  0.9303  0.8933  0.8933  0.7145  0.7145  0.5242  0.4891

 Free energy of the ion-electron system (eV)
  ---------------------------------------------------
  alpha Z        PSCENC =      3918.90069524
  Ewald energy   TEWEN  =    -84409.64015950
  -Hartree energ DENC   =    -49462.75353427
  -exchange      EXHF   =         0.00000000
  -V(xc)+E(xc)   XCENC  =      4656.91313041
  PAW double counting   =    141575.00116786  -169567.78857468
  entropy T*S    EENTRO =        -0.00011045
  eigenvalues    EBANDS =    -13158.69643669
  atomic energy  EATOM  =    166159.16208934
  Solvation  Ediel_sol  =         0.00000000
  ---------------------------------------------------
  free energy    TOTEN  =      -288.90173273 eV

  energy without entropy =     -288.90162229  energy(sigma->0) =     -288.90167751


--------------------------------------------------------------------------------------------------------




--------------------------------------- Iteration      1(  24)  ---------------------------------------


    POTLOK:  cpu time    0.1427: real time    0.1432
    SETDIJ:  cpu time    0.0122: real time    0.0122
     EDDAV:  cpu time  234.9153: real time  235.5023
       DOS:  cpu time    0.0071: real time    0.0071
    CHARGE:  cpu time    6.8967: real time    6.9139
    MIXING:  cpu time    0.0083: real time    0.0083
    --------------------------------------------
      LOOP:  cpu time  241.9823: real time  242.5869

 eigenvalue-minimisations  : 19352
 total energy-change (2. order) :-0.5611219E-07  (-0.1074408E-08)
 number of electron     896.0000069 magnetization 
 augmentation part      539.4676718 magnetization 

 Broyden mixing:
  rms(total) = 0.60952E-05    rms(broyden)= 0.60949E-05
  rms(prec ) = 0.66217E-05
  weight for this iteration     100.00

 eigenvalues of (default mixing * dielectric matrix)
  average eigenvalue GAMMA=   1.4567
  3.3087  3.0644  3.0644  2.5645  2.0040  1.5479  1.5479  1.4168  1.4168  0.9300
  0.9300  0.9676  0.9676  0.8513  0.7120  0.6618  0.6618  0.5578  0.5012

 Free energy of the ion-electron system (eV)
  ---------------------------------------------------
  alpha Z        PSCENC =      3918.90069524
  Ewald energy   TEWEN  =    -84409.64015950
  -Hartree energ DENC   =    -49462.76041060
  -exchange      EXHF   =         0.00000000
  -V(xc)+E(xc)   XCENC  =      4656.91344365
  PAW double counting   =    141574.86427864  -169567.65949815
  entropy T*S    EENTRO =        -0.00011044
  eigenvalues    EBANDS =    -13158.68206097
  atomic energy  EATOM  =    166159.16208934
  Solvation  Ediel_sol  =         0.00000000
  ---------------------------------------------------
  free energy    TOTEN  =      -288.90173279 eV

  energy without entropy =     -288.90162235  energy(sigma->0) =     -288.90167757


--------------------------------------------------------------------------------------------------------




--------------------------------------- Iteration      1(  25)  ---------------------------------------


    POTLOK:  cpu time    0.1447: real time    0.1453
    SETDIJ:  cpu time    0.0119: real time    0.0120
     EDDAV:  cpu time  233.4411: real time  234.0243
       DOS:  cpu time    0.0073: real time    0.0073
    CHARGE:  cpu time    6.8985: real time    6.9157
    MIXING:  cpu time    0.0086: real time    0.0086
    --------------------------------------------
      LOOP:  cpu time  240.5120: real time  241.1132

 eigenvalue-minimisations  : 19160
 total energy-change (2. order) :-0.4642061E-07  (-0.6825894E-09)
 number of electron     896.0000069 magnetization 
 augmentation part      539.4676619 magnetization 

 Broyden mixing:
  rms(total) = 0.10181E-04    rms(broyden)= 0.10181E-04
  rms(prec ) = 0.11328E-04
  weight for this iteration     100.00

 eigenvalues of (default mixing * dielectric matrix)
  average eigenvalue GAMMA=   1.4297
[...]
 -0.000   0.000  -0.000   0.015  -0.000  -0.001   0.001  -0.000   0.038  -0.000  -0.009   0.005   0.201  -0.004   0.008  -0.034
  0.000  -0.000   0.000  -0.000   0.008   0.000  -0.001   0.000  -0.000   0.011  -0.002   0.001   0.002   0.002  -0.005  -0.000
  0.004   0.000   0.001  -0.004  -0.001   0.008  -0.000   0.002  -0.009  -0.002   3.354  -0.945  -0.040   0.019  -0.017   0.011
 -0.002  -0.000  -0.001   0.002   0.001  -0.003   0.001  -0.001   0.005   0.001  -0.945   0.439   0.026  -0.007   0.014  -0.006
 -0.000   0.001   0.000   0.049   0.000  -0.003   0.002   0.003   0.201   0.002  -0.040   0.026   1.906   0.004   0.030  -0.309
  0.049  -0.002  -0.000  -0.001   0.001   0.199  -0.008  -0.002  -0.004   0.002   0.019  -0.007   0.004   1.910  -0.029  -0.001
 -0.003   0.049   0.000   0.002  -0.001  -0.011   0.203   0.002   0.008  -0.005  -0.017   0.014   0.030  -0.029   1.894  -0.007
 -0.000  -0.000   0.000  -0.015   0.000   0.000  -0.001  -0.000  -0.034  -0.000   0.011  -0.006  -0.309  -0.001  -0.007   0.057
 -0.015   0.000   0.000   0.000  -0.000  -0.034   0.002   0.000   0.001  -0.000  -0.006   0.003  -0.001  -0.311   0.008   0.000
  0.000  -0.015  -0.000  -0.001   0.000   0.002  -0.034  -0.000  -0.002   0.001   0.005  -0.003  -0.007   0.008  -0.305   0.002


------------------------ aborting loop because EDIFF is reached ----------------------------------------


    CHARGE:  cpu time    6.5262: real time    6.5427
    FORLOC:  cpu time    0.0695: real time    0.0697
    FORNL :  cpu time  282.7693: real time  283.4720
    STRESS:  cpu time  438.6860: real time  439.7787
    FORCOR:  cpu time    0.2093: real time    0.2097
    FORHAR:  cpu time    0.1018: real time    0.1020
    MIXING:  cpu time    0.0102: real time    0.0102
    OFIELD:  cpu time    0.0000: real time    0.0000

  FORCE on cell =-STRESS in cart. coord.  units (eV):
  Direction    XX          YY          ZZ          XY          YZ          ZX
  --------------------------------------------------------------------------------------
  Alpha Z  3918.90070  3918.90070  3918.90070
  Ewald  -28136.57232-28137.22263-28136.37474  -109.06913    52.28998  -107.67618
  Hartree 16487.13223 16487.54864 16488.07738   -66.05933    31.38788   -64.36417
  E(xc)   -5266.18476 -5266.18868 -5266.18771    -0.09628     0.04709    -0.09809
  Local   -1495.27006 -1495.06168 -1496.44397   173.91672   -83.06084   170.79040
  n-local  1819.35743  1819.28638  1819.31510    -1.48176     0.72686    -1.51674
  augment  8064.38778  8064.40532  8064.41143     0.55712    -0.28304     0.58302
  Kinetic  4606.81490  4606.85106  4606.85146     1.37635    -0.65121     1.36980
  Fock        0.00000     0.00000     0.00000     0.00000     0.00000     0.00000
  -------------------------------------------------------------------------------------
  Total      -1.43412    -1.48089    -1.45035    -0.85630     0.45672    -0.91196
  in kB      -1.50069    -1.54963    -1.51768    -0.89605     0.47792    -0.95429
  external pressure =       -1.52 kB  Pullay stress =        0.00 kB


 VOLUME and BASIS-vectors are now :
 -----------------------------------------------------------------------------
  energy-cutoff  :      500.00
  volume of cell :     1531.10
      direct lattice vectors                 reciprocal lattice vectors
    11.525724000  0.000000000  0.000000000     0.086762445  0.000000000  0.000000000
     0.000000000 11.525724000  0.000000000     0.000000000  0.086762445  0.000000000
     0.000000000  0.000000000 11.525724000     0.000000000  0.000000000  0.086762445

  length of vectors
    11.525724000 11.525724000 11.525724000     0.086762445  0.086762445  0.086762445


 FORCES acting on ions
    electron-ion (+dipol)            ewald-force                    non-local-force                 convergence-correction
 -----------------------------------------------------------------------------------------------
   -.160E+01 -.178E+02 0.102E+02   0.180E+01 0.183E+02 -.103E+02   -.189E+00 -.229E+00 -.127E+00   0.327E-07 -.469E-06 0.607E-06
   0.189E+02 0.137E+02 0.426E+01   -.196E+02 -.142E+02 -.475E+01   0.401E+00 0.337E+00 0.274E+00   0.615E-06 0.624E-06 0.649E-07
   0.314E+01 0.669E+01 0.235E+01   -.315E+01 -.682E+01 -.255E+01   0.184E-01 -.693E-03 0.541E-01   -.161E-05 0.934E-06 0.388E-07
   -.304E+01 0.773E+01 0.728E+01   0.289E+01 -.793E+01 -.734E+01   0.128E-01 0.165E+00 0.122E+00   -.495E-06 0.519E-06 0.934E-06
   0.148E+02 -.614E+01 -.849E+01   -.152E+02 0.614E+01 0.906E+01   0.912E-01 0.312E-01 -.331E+00   0.845E-06 -.470E-06 -.947E-06
   0.505E+01 -.683E+01 0.174E+02   -.557E+01 0.704E+01 -.178E+02   0.453E+00 -.316E-01 0.322E+00   -.721E-06 -.425E-06 0.582E-06
   -.235E+02 -.934E+01 0.419E+01   0.241E+02 0.987E+01 -.436E+01   -.279E+00 -.241E+00 -.505E-01   -.971E-06 -.513E-06 0.204E-06
   0.431E+01 -.109E+02 -.932E+01   -.454E+01 0.115E+02 0.968E+01   0.168E+00 -.370E+00 -.604E-01   -.360E-06 -.691E-06 -.580E-06
   -.113E+01 0.323E+01 -.912E+01   0.118E+01 -.370E+01 0.950E+01   -.156E+00 0.303E+00 -.121E+00   0.809E-06 0.146E-05 0.254E-06
   0.516E+01 0.124E+02 0.232E+01   -.501E+01 -.128E+02 -.223E+01   -.215E+00 0.959E-01 -.671E-01   0.126E-06 0.554E-06 0.141E-05
   0.828E-01 0.563E+01 -.230E+01   0.924E-02 -.550E+01 0.252E+01   -.185E-01 0.449E-01 -.153E+00   0.126E-05 -.101E-05 0.930E-06
   -.616E+01 -.114E+02 -.346E+00   0.633E+01 0.118E+02 0.973E-01   -.130E+00 -.215E+00 0.104E-01   -.109E-05 -.622E-06 -.778E-06
   -.119E+02 -.822E+01 0.113E+01   0.122E+02 0.825E+01 -.130E+01   -.601E-01 0.621E-01 -.502E-01   -.140E-05 0.155E-07 -.552E-06
   -.220E+02 0.683E+01 0.207E+01   0.221E+02 -.708E+01 -.218E+01   0.160E+00 0.884E-01 0.160E+00   -.113E-05 -.287E-06 -.113E-07
   -.315E+02 -.914E+01 0.194E+02   0.324E+02 0.932E+01 -.197E+02   -.470E+00 -.464E-01 0.856E-01   -.191E-05 -.246E-06 0.799E-07
   0.104E+02 -.984E+01 -.646E+01   -.105E+02 0.988E+01 0.618E+01   0.180E+00 -.701E-01 0.219E+00   0.470E-06 0.224E-07 -.915E-06
   -.884E+01 -.187E+02 -.582E+00   0.914E+01 0.197E+02 0.708E+00   -.155E+00 -.506E+00 -.160E+00   -.279E-06 0.475E-07 0.211E-06
   0.149E+02 0.864E+01 0.617E+01   -.154E+02 -.885E+01 -.661E+01   0.261E+00 0.267E-01 0.412E+00   -.339E-07 0.991E-07 0.474E-06
   0.234E+02 0.183E+02 0.109E+02   -.243E+02 -.188E+02 -.112E+02   0.628E+00 0.178E+00 0.187E+00   0.102E-05 -.317E-06 0.847E-06
   0.269E+01 0.204E+00 -.129E+02   -.281E+01 -.478E+00 0.136E+02   0.341E-01 0.212E+00 -.244E+00   -.675E-06 0.498E-07 -.262E-08
   0.112E+02 -.108E+01 -.291E+02   -.116E+02 0.107E+01 0.303E+02   0.270E+00 -.520E-01 -.662E+00   -.797E-06 0.105E-05 -.191E-05
   0.707E+01 0.644E+01 -.888E+01   -.736E+01 -.593E+01 0.896E+01   0.129E-01 -.261E+00 -.521E-01   0.120E-05 0.286E-06 -.149E-05
   0.376E+02 0.184E+02 -.727E+01   -.384E+02 -.187E+02 0.730E+01   0.333E+00 0.105E+00 0.126E+00   0.205E-05 -.284E-06 -.940E-07
   -.441E+01 -.255E+02 -.860E+01   0.420E+01 0.258E+02 0.919E+01   0.209E-01 -.497E-01 -.366E+00   -.688E-06 -.846E-06 -.460E-06
   0.493E+01 -.279E+02 -.263E+00   -.467E+01 0.287E+02 0.498E+00   -.242E+00 -.254E+00 -.157E+00   0.128E-05 -.107E-07 0.331E-07
   0.333E+01 0.149E+02 0.188E+02   -.313E+01 -.160E+02 -.194E+02   -.234E+00 0.711E+00 0.371E+00   -.610E-06 -.134E-06 0.405E-06
   0.239E+02 0.895E+01 -.163E+02   -.245E+02 -.883E+01 0.166E+02   0.332E+00 -.236E+00 -.128E+00   0.233E-06 -.660E-07 -.277E-06
   -.148E+02 -.141E+02 -.129E+00   0.151E+02 0.142E+02 0.365E+00   -.178E+00 0.941E-01 -.178E+00   0.562E-06 -.666E-07 0.119E-07
   -.542E+01 0.124E+02 -.132E+02   0.507E+01 -.133E+02 0.135E+02   0.133E+00 0.525E+00 -.108E-01   -.974E-07 0.398E-06 -.307E-06
   0.208E+02 0.704E+01 0.595E+01   -.210E+02 -.694E+01 -.661E+01   0.835E-01 -.248E+00 0.410E+00   0.538E-06 0.212E-06 0.587E-06
   0.191E+00 -.718E+00 0.671E+01   -.615E-02 0.105E+01 -.720E+01   0.335E-01 -.276E+00 0.333E+00   0.136E-05 -.163E-05 -.696E-06
   -.940E+01 0.454E+01 -.363E+00   0.944E+01 -.448E+01 0.267E+00   -.802E-02 -.227E+00 -.131E+00   -.971E-06 0.494E-06 -.453E-07
   -.248E+01 0.585E+00 -.900E+01   0.243E+01 -.963E+00 0.944E+01   0.121E+00 0.159E+00 -.292E+00   -.929E-06 -.377E-06 0.563E-07
   -.350E+01 -.167E+02 -.315E+02   0.363E+01 0.174E+02 0.324E+02   -.404E-01 -.418E+00 -.477E+00   0.958E-06 -.328E-06 -.155E-05
   -.176E+02 0.481E+01 -.702E+01   0.180E+02 -.506E+01 0.719E+01   -.197E+00 0.275E+00 -.126E+00   0.356E-06 0.789E-06 0.595E-06
   0.248E+00 0.113E+02 -.165E+01   0.129E+00 -.111E+02 0.202E+01   -.232E+00 -.231E+00 -.258E+00   -.186E-06 0.697E-06 -.232E-06
   0.243E+01 0.137E+02 0.552E+01   -.229E+01 -.134E+02 -.557E+01   -.156E-01 -.368E+00 -.515E-02   -.402E-07 0.166E-05 0.402E-06
   -.148E+02 0.183E+02 0.334E-01   0.150E+02 -.192E+02 0.244E-01   -.421E-01 0.553E+00 -.938E-02   0.102E-06 0.705E-06 -.417E-06
   -.157E+02 -.624E+01 0.311E+02   0.157E+02 0.626E+01 -.318E+02   -.449E-01 -.108E+00 0.283E+00   0.121E-07 -.836E-06 0.757E-06
   0.812E+01 -.380E+01 0.366E+01   -.788E+01 0.420E+01 -.357E+01   -.278E+00 -.480E-01 0.133E-01   0.114E-06 0.535E-06 0.614E-06
   0.131E+01 -.990E+00 0.150E+02   -.143E+01 0.972E+00 -.151E+02   0.745E-02 -.118E+00 -.126E+00   0.704E-06 0.436E-06 0.720E-06
   -.503E+01 0.108E+02 0.314E+01   0.525E+01 -.112E+02 -.324E+01   -.299E-02 0.227E+00 0.211E+00   -.131E-05 -.943E-06 0.598E-06
   0.720E+01 0.228E+02 -.513E+01   -.714E+01 -.233E+02 0.524E+01   -.100E+00 0.182E+00 -.117E+00   -.739E-06 0.261E-06 -.744E-06
   -.272E+02 0.289E+01 0.331E+01   0.278E+02 -.304E+01 -.338E+01   -.169E+00 0.639E-01 0.105E+00   -.254E-06 0.914E-06 0.780E-06
   0.544E+01 -.117E+02 -.448E+01   -.568E+01 0.115E+02 0.427E+01   0.692E-01 0.977E-01 0.104E+00   0.373E-06 -.499E-07 -.190E-06
   0.744E+01 0.377E+01 0.836E+01   -.764E+01 -.387E+01 -.863E+01   0.177E+00 0.231E+00 0.182E+00   -.516E-06 0.178E-05 -.106E-07
   0.230E+02 0.104E+02 0.633E+01   -.235E+02 -.102E+02 -.628E+01   0.200E+00 -.261E+00 -.115E+00   0.142E-05 0.386E-06 0.878E-06
   0.153E+01 0.163E+00 0.303E+01   -.150E+01 -.498E+00 -.373E+01   -.123E+00 0.280E+00 0.306E+00   0.548E-06 0.712E-07 -.135E-06
   -.414E+01 -.907E+00 0.169E+02   0.425E+01 0.864E+00 -.175E+02   -.239E+00 0.349E-01 0.240E+00   0.400E-06 0.722E-06 0.162E-05
   -.381E+01 -.106E+02 0.843E+01   0.424E+01 0.113E+02 -.867E+01   -.173E+00 -.289E+00 0.232E+00   0.831E-06 -.724E-06 -.599E-07
   -.172E+02 0.150E+02 -.204E+02   0.177E+02 -.156E+02 0.205E+02   -.280E+00 0.289E+00 -.209E-01   -.133E-05 -.112E-06 -.144E-05
   -.140E+02 -.494E+01 0.143E+02   0.142E+02 0.507E+01 -.145E+02   0.236E-01 -.124E+00 0.118E+00   -.522E-06 -.364E-06 0.936E-06
   0.327E+01 -.306E+01 0.357E+01   -.353E+01 0.340E+01 -.379E+01   0.248E+00 -.162E+00 0.857E-01   0.775E-06 0.135E-06 -.113E-05
   0.210E+01 -.250E+02 -.150E+02   -.193E+01 0.259E+02 0.154E+02   -.116E+00 -.418E+00 -.199E+00   -.380E-07 -.803E-06 0.134E-06
   -.380E+01 -.701E+01 -.755E+01   0.366E+01 0.696E+01 0.828E+01   0.808E-01 0.149E+00 -.301E+00   0.374E-06 -.856E-06 -.602E-06
   -.717E+01 0.991E+00 0.609E+01   0.747E+01 -.890E+00 -.595E+01   -.187E+00 -.136E+00 -.237E+00   -.447E-07 -.424E-06 -.735E-07
   0.105E+02 0.200E+01 0.496E-02   -.109E+02 -.211E+01 0.218E+00   0.125E+00 -.391E-01 -.916E-01   0.342E-06 0.493E-06 0.543E-06
   -.150E+02 0.406E+01 -.165E+02   0.155E+02 -.448E+01 0.167E+02   -.279E+00 0.468E+00 -.259E-01   -.315E-06 0.104E-07 -.159E-05
   -.874E+01 -.166E+02 -.257E+01   0.861E+01 0.168E+02 0.270E+01   0.298E+00 -.181E-01 0.751E-02   -.439E-06 -.183E-05 -.370E-06
   0.156E+02 -.835E+01 0.883E+01   -.160E+02 0.873E+01 -.917E+01   0.114E+00 -.820E-01 0.858E-01   -.325E-07 -.654E-06 0.290E-05
   0.137E+02 -.199E+01 -.162E+02   -.139E+02 0.164E+01 0.162E+02   0.695E-01 0.908E-01 0.224E-01   0.341E-06 0.163E-06 -.113E-05
   -.958E+01 0.164E+02 -.346E+01   0.996E+01 -.167E+02 0.357E+01   -.219E+00 0.176E-01 0.246E-01   0.444E-06 0.660E-06 -.440E-06
   -.603E+01 0.400E+01 -.122E+01   0.618E+01 -.375E+01 0.122E+01   0.819E-01 -.157E-01 -.237E-01   -.670E-06 0.601E-07 0.154E-06
   0.536E+01 -.230E+01 0.188E+02   -.540E+01 0.224E+01 -.194E+02   -.110E+00 -.115E-01 0.274E+00   0.262E-06 -.558E-06 -.580E-06
 -----------------------------------------------------------------------------------------------
   -.635E-01 0.633E-01 0.914E-01   0.124E-13 0.101E-12 -.394E-12   0.605E-01 -.649E-01 -.922E-01   -.441E-06 0.293E-06 -.408E-06
 
 
 POSITION                                       TOTAL-FORCE (eV/Angst)
 -----------------------------------------------------------------------------------
      2.90118     11.51761      2.90250         0.010875      0.248979     -0.226494
      8.66567      0.00683      2.90135        -0.304749     -0.147559     -0.216572
      2.88101      5.77830      2.90715         0.001489     -0.131784     -0.142999
      8.66642      5.75229      2.86415        -0.135558     -0.033423      0.060806
      2.90760     11.51692      8.63255        -0.304653      0.039346      0.241015
      8.62412     11.50362      8.64645        -0.065258      0.182720     -0.079167
      2.87043      5.74999      8.66906         0.339337      0.288305     -0.217612
      8.64507      5.76577      8.61444        -0.065043      0.196427      0.304199
      1.46586      1.44617      1.42529        -0.106147     -0.165522      0.256974
      7.22058      1.46382      1.43193        -0.067585     -0.302561      0.019721
      1.41840      7.18394      1.44478         0.073528      0.176241      0.062766
      7.21019      7.20468      1.46996         0.036908      0.155898     -0.238066
      1.42392      1.43892      7.22837         0.239234      0.089604     -0.216520
      7.17999      1.44365      7.18527         0.316351     -0.160281      0.055038
      1.42481      7.19047      7.22537         0.442540      0.136508     -0.241375
      7.17571      7.21185      7.21100         0.084181     -0.037266     -0.055002
      2.88935      2.85454     11.51503         0.149841      0.404645     -0.033540
      8.65788      2.90321     11.51019        -0.214225     -0.181505     -0.028155
      2.87389      8.66661      0.01858        -0.286258     -0.329200     -0.183925
      8.66019      8.64717     11.50044        -0.087175     -0.061726      0.428232
      2.89199      2.88643      5.73523        -0.170125     -0.055470      0.536290
      8.66971      2.86588      5.76640        -0.273990      0.250824      0.037508
      2.90595      8.65738      5.75157        -0.439081     -0.209135      0.157512
      8.64697      8.61485      5.75778        -0.185976      0.304582      0.223039
      1.44002      4.29265      4.32757         0.016400      0.461407      0.078242
      7.22666      4.33708      4.33414        -0.032336     -0.395351     -0.254031
      1.45789     10.10745      4.31207        -0.282525     -0.110742      0.233268
      7.18066     10.06576      4.32422         0.154017      0.235998      0.057880
      1.45548      4.32190     10.05889        -0.218424     -0.328533      0.324480
      7.21608      4.34871     10.09117        -0.142392     -0.145940     -0.248240
      1.41171     10.09005     10.09077         0.218727      0.053394     -0.159471
      7.20139     10.09437     10.11343         0.032318     -0.161532     -0.226276
     11.51369      0.02747     11.52478         0.066137     -0.219246      0.146352
      5.75531     11.49786     11.51756         0.091012      0.299324      0.350868
     11.51976      5.73380     11.52126         0.163428      0.025185      0.038288
      5.76954      5.79202     11.52341         0.145055     -0.115951      0.112074
     11.50482      0.01983      5.77120         0.125011     -0.096940     -0.051546
      5.73619      0.01326      5.76646         0.151069     -0.356662      0.048439
      0.00201      5.77259      5.79117        -0.040861     -0.085005     -0.426854
      5.77780      5.74183      5.74754        -0.040731      0.355560      0.104413
      4.33023      1.45233      4.34860        -0.111642     -0.136332     -0.263938
     10.07452      1.46603      4.30992         0.219654     -0.221172      0.114226
      4.33546      7.22713      4.33510        -0.047087     -0.310043     -0.005940
     10.05609      7.20427      4.31419         0.398596     -0.089351      0.030968
      4.35171      1.43572     10.08391        -0.174658     -0.139565     -0.102523
     10.06272      1.42085     10.08795        -0.022136      0.127911     -0.080912
      4.33754      7.22005     10.10481        -0.329087     -0.005743     -0.061179
     10.10077      7.19244     10.10798        -0.090239     -0.054555     -0.395286
      0.02317      2.87636      2.89980        -0.134689     -0.008564     -0.356732
      5.74812      2.85548      2.88448         0.254113      0.393377     -0.014973
     11.50751      8.66783      2.88520         0.299363     -0.327626      0.138580
      5.73298      8.64676      2.88229         0.228279      0.006282     -0.106142
     11.50252      2.87149      8.66050        -0.008303      0.175471     -0.132798
      5.76831      2.85668      8.62824         0.047727      0.458874      0.186340
      0.00250      8.62392      8.62241        -0.057224      0.108584      0.423700
      5.75531      8.65887      8.66940         0.110036     -0.035087     -0.100308
      4.34008      4.34255      1.42797        -0.214354     -0.154151      0.131117
     10.07988      4.29678      1.42553         0.265621      0.039408      0.218681
      4.29897     10.06703      1.43444         0.174840      0.227952      0.142670
     10.10720     10.07300      1.45695        -0.263836      0.305023     -0.251747
      4.33607      4.34553      7.19094        -0.173994     -0.259450      0.099249
     10.07254      4.34704      7.19240         0.161857     -0.335489      0.134787
      4.30630     10.06033      7.20989         0.226594      0.226989     -0.023105
     10.09275     10.07971      7.23207        -0.153796     -0.066356     -0.356297
 -----------------------------------------------------------------------------------
    total drift:                               -0.003005     -0.001604     -0.000818


--------------------------------------------------------------------------------------------------------



  FREE ENERGIE OF THE ION-ELECTRON SYSTEM (eV)
  ---------------------------------------------------
  free  energy   TOTEN  =      -288.90173278 eV

  energy  without entropy=     -288.90162233  energy(sigma->0) =     -288.90167756
 


--------------------------------------------------------------------------------------------------------


    POTLOK:  cpu time    0.1512: real time    0.1517


--------------------------------------------------------------------------------------------------------


     LOOP+:  cpu time11095.8848: real time11123.8464
    4ORBIT:  cpu time    0.0000: real time    0.0000

 total amount of memory used by VASP MPI-rank0   815258. kBytes
=======================================================================

   base      :      30000. kBytes
   nonl-proj :      54945. kBytes
   fftplans  :      14849. kBytes
   grid      :      20975. kBytes
   one-center:        248. kBytes
   wavefun   :     694241. kBytes
 
  
  
 General timing and accounting informations for this job:
 ========================================================
  
                  Total CPU time used (sec):    11165.528
                            User time (sec):    11062.662
                          System time (sec):      102.865
                         Elapsed time (sec):    11197.769
  
                   Maximum memory used (kb):      901096.
                   Average memory used (kb):           0.
  
                          Minor page faults:       884583
                          Major page faults:           16
                 Voluntary context switches:         2076
